Title Card Required                                                     
SP        RHF                                                         3-21G               
Number of atoms                            I                6
Info1-9                                    I   N=           9
          27          26           0           0           0         110
           1           1           2
Charge                                     I                0
Multiplicity                               I                1
Number of electrons                        I               16
Number of alpha electrons                  I                8
Number of beta electrons                   I                8
Number of basis functions                  I               26
Number of independent functions            I               26
Number of point charges in /Mol/           I                0
Number of translation vectors              I                0
Atomic numbers                             I   N=           6
           6           1           1           6           1           1
Nuclear charges                            R   N=           6
  6.00000000E+00  1.00000000E+00  1.00000000E+00  6.00000000E+00  1.00000000E+00
  1.00000000E+00
Current cartesian coordinates              R   N=          18
 -1.11022302E-16  1.28047843E+00 -3.30872245E-24 -1.74709113E+00  2.29841003E+00
 -6.61744490E-24  1.75310823E+00  2.28801189E+00 -6.61744490E-24  0.00000000E+00
 -1.28047843E+00 -8.27180613E-25  1.74709113E+00 -2.29841003E+00  3.30872245E-24
 -1.75310823E+00 -2.28801189E+00  0.00000000E+00
Force Field                                I                0
Int Atom Types                             I   N=           6
           0           0           0           0           0           0
MM charges                                 R   N=           6
  0.00000000E+00  0.00000000E+00  0.00000000E+00  0.00000000E+00  0.00000000E+00
  0.00000000E+00
Integer atomic weights                     I   N=           6
          12           1           1          12           1           1
Real atomic weights                        R   N=           6
  1.20000000E+01  1.00782504E+00  1.00782504E+00  1.20000000E+01  1.00782504E+00
  1.00782504E+00
Atom fragment info                         I   N=           6
           0           0           0           0           0           0
Atom residue num                           I   N=           6
           0           0           0           0           0           0
Nuclear spins                              I   N=           6
           0           1           1           0           1           1
Nuclear ZEff                               R   N=           6
 -3.60000000E+00 -1.00000000E+00 -1.00000000E+00 -3.60000000E+00 -1.00000000E+00
 -1.00000000E+00
Nuclear QMom                               R   N=           6
  0.00000000E+00  0.00000000E+00  0.00000000E+00  0.00000000E+00  0.00000000E+00
  0.00000000E+00
Nuclear GFac                               R   N=           6
  0.00000000E+00  2.79284600E+00  2.79284600E+00  0.00000000E+00  2.79284600E+00
  2.79284600E+00
MicOpt                                     I   N=           6
          -1          -1          -1          -1          -1          -1
Number of contracted shells                I               14
Number of primitive shells                 I               24
Pure/Cartesian d shells                    I                1
Pure/Cartesian f shells                    I                0
Highest angular momentum                   I                1
Largest degree of contraction              I                3
Shell types                                I   N=          14
           0          -1          -1           0           0           0
           0           0          -1          -1           0           0
           0           0
Number of primitives per shell             I   N=          14
           3           2           1           2           1           2
           1           3           2           1           2           1
           2           1
Shell to atom map                          I   N=          14
           1           1           1           2           2           3
           3           4           4           4           5           5
           6           6
Primitive exponents                        R   N=          24
  1.72256000E+02  2.59109000E+01  5.53335000E+00  3.66498000E+00  7.70545000E-01
  1.95857000E-01  5.44717800E+00  8.24547240E-01  1.83191580E-01  5.44717800E+00
  8.24547240E-01  1.83191580E-01  1.72256000E+02  2.59109000E+01  5.53335000E+00
  3.66498000E+00  7.70545000E-01  1.95857000E-01  5.44717800E+00  8.24547240E-01
  1.83191580E-01  5.44717800E+00  8.24547240E-01  1.83191580E-01
Contraction coefficients                   R   N=          24
  6.17669074E-02  3.58794043E-01  7.00713084E-01 -3.95895162E-01  1.21583436E+00
  1.00000000E+00  1.56284979E-01  9.04690877E-01  1.00000000E+00  1.56284979E-01
  9.04690877E-01  1.00000000E+00  6.17669074E-02  3.58794043E-01  7.00713084E-01
 -3.95895162E-01  1.21583436E+00  1.00000000E+00  1.56284979E-01  9.04690877E-01
  1.00000000E+00  1.56284979E-01  9.04690877E-01  1.00000000E+00
P(S=P) Contraction coefficients            R   N=          24
  0.00000000E+00  0.00000000E+00  0.00000000E+00  2.36459947E-01  8.60618806E-01
  1.00000000E+00  0.00000000E+00  0.00000000E+00  0.00000000E+00  0.00000000E+00
  0.00000000E+00  0.00000000E+00  0.00000000E+00  0.00000000E+00  0.00000000E+00
  2.36459947E-01  8.60618806E-01  1.00000000E+00  0.00000000E+00  0.00000000E+00
  0.00000000E+00  0.00000000E+00  0.00000000E+00  0.00000000E+00
Coordinates of each shell                  R   N=          42
 -3.55404158E-17  1.28047843E+00 -1.32398366E-24 -3.55404158E-17  1.28047843E+00
 -1.32398366E-24 -3.55404158E-17  1.28047843E+00 -1.32398366E-24 -1.74709113E+00
  2.29841003E+00 -1.65392031E-24 -1.74709113E+00  2.29841003E+00 -1.65392031E-24
  1.75310823E+00  2.28801189E+00 -3.09081742E-24  1.75310823E+00  2.28801189E+00
 -3.09081742E-24 -1.06621247E-16 -1.28047843E+00 -1.85357713E-24 -1.06621247E-16
 -1.28047843E+00 -1.85357713E-24 -1.06621247E-16 -1.28047843E+00 -1.85357713E-24
  1.74709113E+00 -2.29841003E+00 -4.04968033E-24  1.74709113E+00 -2.29841003E+00
 -4.04968033E-24 -1.75310823E+00 -2.28801189E+00 -2.58697982E-24 -1.75310823E+00
 -2.28801189E+00 -2.58697982E-24
Constraint Structure                       R   N=          18
 -3.55404158E-17  1.28047843E+00 -1.32398366E-24 -1.74709113E+00  2.29841003E+00
 -1.65392031E-24  1.75310823E+00  2.28801189E+00 -3.09081742E-24 -1.06621247E-16
 -1.28047843E+00 -1.85357713E-24  1.74709113E+00 -2.29841003E+00 -4.04968033E-24
 -1.75310823E+00 -2.28801189E+00 -2.58697982E-24
Num ILSW                                   I              100
ILSW                                       I   N=         100
           0           1           0           0           2           0
           0           0           0           0           0          -1
           0           0           0           0           0           0
           0           0           1           0           0           0
           1           0           0           0           0           0
           0           0      100000           0          -1           0
           0           0           0           0           0           0
           0           0           0           1           0           0
           0           0           1           0           0           0
           0           0           4          40           0           0
           0           0           0           0           0           0
           0           0           0           0           0           0
           0           0           0           0           0           0
           0           0           0           0           0           0
           0           0           0           0           0           0
           0           0           0           0           0           0
           0           0           0           0
Num RLSW                                   I               40
RLSW                                       R   N=          40
  1.00000000E+00  1.00000000E+00  1.00000000E+00  1.00000000E+00  1.00000000E+00
  0.00000000E+00  0.00000000E+00  1.00000000E+00  0.00000000E+00  0.00000000E+00
  0.00000000E+00  0.00000000E+00  1.00000000E+00  0.00000000E+00  0.00000000E+00
  0.00000000E+00  0.00000000E+00  1.00000000E+00  0.00000000E+00  0.00000000E+00
  0.00000000E+00  0.00000000E+00  1.00000000E+00  0.00000000E+00  0.00000000E+00
  0.00000000E+00  0.00000000E+00  1.00000000E+00  0.00000000E+00  0.00000000E+00
  0.00000000E+00  0.00000000E+00  1.00000000E+00  0.00000000E+00  0.00000000E+00
  0.00000000E+00  0.00000000E+00  0.00000000E+00  1.00000000E+00  1.00000000E+00
MxBond                                     I                3
NBond                                      I   N=           6
           3           1           1           3           1           1
IBond                                      I   N=          18
           2           3           4           1           0           0
           1           0           0           1           5           6
           4           0           0           4           0           0
RBond                                      R   N=          18
  1.00000000E+00  1.00000000E+00  2.00000000E+00  1.00000000E+00  0.00000000E+00
  0.00000000E+00  1.00000000E+00  0.00000000E+00  0.00000000E+00  2.00000000E+00
  1.00000000E+00  1.00000000E+00  1.00000000E+00  0.00000000E+00  0.00000000E+00
  1.00000000E+00  0.00000000E+00  0.00000000E+00
Virial Ratio                               R      2.003449890008512E+00
SCF Energy                                 R     -7.759853024860084E+01
Total Energy                               R     -7.759853024860084E+01
RMS Density                                R      6.783472591277655E-09
External E-field                           R   N=          35
  0.00000000E+00  0.00000000E+00  0.00000000E+00  0.00000000E+00  0.00000000E+00
  0.00000000E+00  0.00000000E+00  0.00000000E+00  0.00000000E+00  0.00000000E+00
  0.00000000E+00  0.00000000E+00  0.00000000E+00  0.00000000E+00  0.00000000E+00
  0.00000000E+00  0.00000000E+00  0.00000000E+00  0.00000000E+00  0.00000000E+00
  0.00000000E+00  0.00000000E+00  0.00000000E+00  0.00000000E+00  0.00000000E+00
  0.00000000E+00  0.00000000E+00  0.00000000E+00  0.00000000E+00  0.00000000E+00
  0.00000000E+00  0.00000000E+00  0.00000000E+00  0.00000000E+00  0.00000000E+00
IOpCl                                      I                0
IROHF                                      I                0
Alpha Orbital Energies                     R   N=          26
 -1.11704520E+01 -1.11703571E+01 -1.02773280E+00 -7.89697699E-01 -6.49850274E-01
 -5.75185318E-01 -5.10951519E-01 -3.69889897E-01  1.77327654E-01  2.93994983E-01
  3.19287674E-01  3.44605899E-01  4.34950692E-01  5.25159895E-01  8.84904530E-01
  9.30411933E-01  9.97066948E-01  1.07520797E+00  1.08836938E+00  1.12153890E+00
  1.32651925E+00  1.36816579E+00  1.39392592E+00  1.66857276E+00  1.67161787E+00
  1.95700538E+00
Alpha MO coefficients                      R   N=         676
  6.97919799E-01  7.05810161E-02  7.78021562E-06 -1.60757236E-03  0.00000000E+00
 -6.50848135E-02 -3.95165757E-05  1.47396312E-02  0.00000000E+00 -3.61811829E-04
  8.22443501E-03 -3.47416088E-04  8.25972656E-03 -6.97919799E-01 -7.05810161E-02
  7.78021562E-06 -1.60757236E-03  0.00000000E+00  6.50848135E-02 -3.95165757E-05
  1.47396312E-02  0.00000000E+00  3.61811829E-04 -8.22443501E-03  3.47416088E-04
 -8.25972656E-03  6.97640383E-01  6.55727324E-02  4.52092287E-06  1.41903796E-03
  0.00000000E+00 -3.15859170E-02 -3.90764883E-05 -3.99373530E-03  0.00000000E+00
 -1.86261812E-03  9.67855769E-03 -1.85455998E-03  9.71527679E-03  6.97640383E-01
  6.55727324E-02 -4.52092287E-06 -1.41903796E-03  0.00000000E+00 -3.15859170E-02
  3.90764883E-05  3.99373530E-03  0.00000000E+00 -1.86261812E-03  9.67855769E-03
 -1.85455998E-03  9.71527679E-03 -1.64746385E-01  1.79297928E-01  1.17639074E-04
 -9.95454959E-02  0.00000000E+00  3.72317588E-01  2.22368611E-04 -1.75598666E-02
  0.00000000E+00  8.10534903E-02  6.55642357E-03  8.11710264E-02  6.42195117E-03
 -1.64746385E-01  1.79297928E-01 -1.17639074E-04  9.95454959E-02  0.00000000E+00
  3.72317588E-01 -2.22368611E-04  1.75598666E-02  0.00000000E+00  8.10534903E-02
  6.55642357E-03  8.11710264E-02  6.42195117E-03 -1.29513550E-01  1.33947873E-01
  1.52154941E-04  1.38912995E-01  0.00000000E+00  4.20735475E-01  1.98291991E-04
  5.94337190E-02  0.00000000E+00  1.38539860E-01  6.69100703E-02  1.38247868E-01
  6.66217454E-02  1.29513550E-01 -1.33947873E-01  1.52154941E-04  1.38912995E-01
  0.00000000E+00 -4.20735475E-01  1.98291991E-04  5.94337190E-02  0.00000000E+00
 -1.38539860E-01 -6.69100703E-02 -1.38247868E-01 -6.66217454E-02  9.40420437E-06
 -2.32497424E-05  2.78554250E-01 -3.37020965E-04  0.00000000E+00  3.15266105E-04
  1.92661897E-01 -3.92847100E-04  0.00000000E+00 -1.48153334E-01 -1.07031056E-01
  1.48428502E-01  1.07195860E-01 -9.40420437E-06  2.32497424E-05  2.78554250E-01
 -3.37020965E-04  0.00000000E+00 -3.15266105E-04  1.92661897E-01 -3.92847100E-04
  0.00000000E+00  1.48153334E-01  1.07031056E-01 -1.48428502E-01 -1.07195860E-01
  9.21997629E-03 -2.01198675E-02 -1.93295684E-03  3.63869676E-01  0.00000000E+00
  1.43910077E-02 -2.45436792E-03  2.29263895E-01  0.00000000E+00  1.18962085E-01
  1.12876712E-01  1.15639082E-01  1.10982939E-01  9.21997629E-03 -2.01198675E-02
  1.93295684E-03 -3.63869676E-01  0.00000000E+00  1.43910077E-02  2.45436792E-03
 -2.29263895E-01  0.00000000E+00  1.18962085E-01  1.12876712E-01  1.15639082E-01
  1.10982939E-01  2.40874490E-04 -3.93102877E-04  2.63753324E-01  3.13784082E-03
  0.00000000E+00 -5.96143134E-04  2.72049926E-01  1.94085952E-03  0.00000000E+00
 -1.77783906E-01 -1.49313257E-01  1.79983174E-01  1.51862237E-01  2.40874490E-04
 -3.93102877E-04 -2.63753324E-01 -3.13784082E-03  0.00000000E+00 -5.96143134E-04
 -2.72049926E-01 -1.94085952E-03  0.00000000E+00 -1.77783906E-01 -1.49313257E-01
  1.79983174E-01  1.51862237E-01  0.00000000E+00  0.00000000E+00  0.00000000E+00
  0.00000000E+00  3.17732070E-01  0.00000000E+00  0.00000000E+00  0.00000000E+00
  3.79537507E-01  0.00000000E+00  0.00000000E+00  0.00000000E+00  0.00000000E+00
  0.00000000E+00  0.00000000E+00  0.00000000E+00  0.00000000E+00  3.17732070E-01
  0.00000000E+00  0.00000000E+00  0.00000000E+00  3.79537507E-01  0.00000000E+00
  0.00000000E+00  0.00000000E+00  0.00000000E+00  0.00000000E+00  0.00000000E+00
  0.00000000E+00  0.00000000E+00  3.04926612E-01  0.00000000E+00  0.00000000E+00
  0.00000000E+00  7.39387563E-01  0.00000000E+00  0.00000000E+00  0.00000000E+00
  0.00000000E+00  0.00000000E+00  0.00000000E+00  0.00000000E+00  0.00000000E+00
 -3.04926612E-01  0.00000000E+00  0.00000000E+00  0.00000000E+00 -7.39387563E-01
  0.00000000E+00  0.00000000E+00  0.00000000E+00  0.00000000E+00 -9.18990968E-02
  3.17095120E-02  4.32313831E-04  1.24394523E-01  0.00000000E+00  1.37807847E+00
  3.69287983E-03  5.97305883E-01  0.00000000E+00 -1.98510037E-02 -9.46174868E-01
 -2.01693017E-02 -9.48928419E-01 -9.18990968E-02  3.17095120E-02 -4.32313831E-04
 -1.24394523E-01  0.00000000E+00  1.37807847E+00 -3.69287983E-03 -5.97305883E-01
  0.00000000E+00 -1.98510037E-02 -9.46174868E-01 -2.01693017E-02 -9.48928419E-01
  1.58886845E-03 -8.38122394E-04  2.16634999E-01 -6.67451519E-04  0.00000000E+00
 -1.73839205E-02  8.39262350E-01 -5.16217237E-03  0.00000000E+00  4.47533363E-02
  1.04193659E+00 -4.40201596E-02 -1.02096310E+00 -1.58886845E-03  8.38122394E-04
  2.16634999E-01 -6.67451519E-04  0.00000000E+00  1.73839205E-02  8.39262350E-01
 -5.16217237E-03  0.00000000E+00 -4.47533363E-02 -1.04193659E+00  4.40201596E-02
  1.02096310E+00 -1.22160515E-01  4.60235538E-02  2.90224499E-03  8.42984523E-02
  0.00000000E+00  1.64051156E+00  1.13624729E-02  2.64123394E-01  0.00000000E+00
 -2.48100141E-02 -9.87656651E-01 -2.53986507E-02 -1.01223129E+00  1.22160515E-01
 -4.60235538E-02  2.90224499E-03  8.42984523E-02  0.00000000E+00 -1.64051156E+00
  1.13624729E-02  2.64123394E-01  0.00000000E+00  2.48100141E-02  9.87656651E-01
  2.53986507E-02  1.01223129E+00  1.22987312E-04  1.15709144E-04  2.35962096E-01
 -1.37490638E-03  0.00000000E+00 -4.12909734E-03  1.65361095E+00 -3.98426268E-03
  0.00000000E+00 -3.87707780E-02  1.41866849E+00  3.84971978E-02 -1.41339993E+00
  1.22987312E-04  1.15709144E-04 -2.35962096E-01  1.37490638E-03  0.00000000E+00
 -4.12909734E-03 -1.65361095E+00  3.98426268E-03  0.00000000E+00 -3.87707780E-02
  1.41866849E+00  3.84971978E-02 -1.41339993E+00  9.26810799E-02  8.22199370E-04
 -2.24155662E-04  1.60046527E-01  0.00000000E+00 -2.33943310E+00 -1.12239084E-03
  2.42211733E+00  0.00000000E+00 -7.30459534E-02 -3.90957108E-01 -7.45169056E-02
 -3.82736141E-01 -9.26810799E-02 -8.22199370E-04 -2.24155662E-04  1.60046527E-01
  0.00000000E+00  2.33943310E+00 -1.12239084E-03  2.42211733E+00  0.00000000E+00
  7.30459534E-02  3.90957108E-01  7.45169056E-02  3.82736141E-01  1.42841993E-02
  5.86000420E-02 -3.51575039E-03 -6.40222228E-01  0.00000000E+00  4.33829457E-01
  5.27578914E-03  9.96430215E-01  0.00000000E+00 -1.77113706E-01 -8.68202859E-02
 -1.80031487E-01 -8.26981249E-02  1.42841993E-02  5.86000420E-02  3.51575039E-03
  6.40222228E-01  0.00000000E+00  4.33829457E-01 -5.27578914E-03 -9.96430215E-01
  0.00000000E+00 -1.77113706E-01 -8.68202859E-02 -1.80031487E-01 -8.26981249E-02
  1.78122452E-04  7.51517796E-04 -4.27111686E-01  3.81851316E-03  0.00000000E+00
  7.47101783E-03  7.44268610E-01 -1.21281434E-02  0.00000000E+00  4.43122491E-01
  1.37656225E-02 -4.37377703E-01 -1.48464867E-02 -1.78122452E-04 -7.51517796E-04
 -4.27111686E-01  3.81851316E-03  0.00000000E+00 -7.47101783E-03  7.44268610E-01
 -1.21281434E-02  0.00000000E+00 -4.43122491E-01 -1.37656225E-02  4.37377703E-01
  1.48464867E-02  0.00000000E+00  0.00000000E+00  0.00000000E+00  0.00000000E+00
  7.66977312E-01  0.00000000E+00  0.00000000E+00  0.00000000E+00 -5.79402646E-01
  0.00000000E+00  0.00000000E+00  0.00000000E+00  0.00000000E+00  0.00000000E+00
  0.00000000E+00  0.00000000E+00  0.00000000E+00  7.66977312E-01  0.00000000E+00
  0.00000000E+00  0.00000000E+00 -5.79402646E-01  0.00000000E+00  0.00000000E+00
  0.00000000E+00  0.00000000E+00  0.00000000E+00  0.00000000E+00  0.00000000E+00
  0.00000000E+00 -7.93185458E-01  0.00000000E+00  0.00000000E+00  0.00000000E+00
  9.39222885E-01  0.00000000E+00  0.00000000E+00  0.00000000E+00  0.00000000E+00
  0.00000000E+00  0.00000000E+00  0.00000000E+00  0.00000000E+00  7.93185458E-01
  0.00000000E+00  0.00000000E+00  0.00000000E+00 -9.39222885E-01  0.00000000E+00
  0.00000000E+00  0.00000000E+00  0.00000000E+00  8.92902579E-02 -9.89614889E-04
  4.48017182E-03  6.00196746E-01  0.00000000E+00 -2.81380186E-01 -8.04001658E-03
 -5.21008365E-01  0.00000000E+00  4.34348740E-01 -8.30299062E-02  4.38644079E-01
 -7.79616038E-02 -8.92902579E-02  9.89614889E-04  4.48017182E-03  6.00196746E-01
  0.00000000E+00  2.81380186E-01 -8.04001658E-03 -5.21008365E-01  0.00000000E+00
 -4.34348740E-01  8.30299062E-02 -4.38644079E-01  7.79616038E-02  3.75114035E-02
  3.64033107E-01  4.13131992E-04 -2.67011760E-01  0.00000000E+00 -3.99201670E-01
 -2.81429340E-03  3.70592691E-02  0.00000000E+00  5.89104197E-01 -2.52728770E-01
  5.86886253E-01 -2.47331832E-01  3.75114035E-02  3.64033107E-01 -4.13131992E-04
  2.67011760E-01  0.00000000E+00 -3.99201670E-01  2.81429340E-03 -3.70592691E-02
  0.00000000E+00  5.89104197E-01 -2.52728770E-01  5.86886253E-01 -2.47331832E-01
 -5.83706958E-05  5.66184955E-04 -8.32863257E-01  2.56672555E-03  0.00000000E+00
 -4.68859318E-03  1.92153465E+00 -7.24116225E-03  0.00000000E+00 -2.71878656E-01
  1.10762060E+00  2.74342566E-01 -1.10454294E+00 -5.83706958E-05  5.66184955E-04
  8.32863257E-01 -2.56672555E-03  0.00000000E+00 -4.68859318E-03 -1.92153465E+00
  7.24116225E-03  0.00000000E+00 -2.71878656E-01  1.10762060E+00  2.74342566E-01
 -1.10454294E+00 -6.02843921E-04  1.08806394E-03  6.95272771E-01  5.24904962E-03
  0.00000000E+00  6.31549898E-03 -8.50531829E-01 -1.46021089E-02  0.00000000E+00
  4.74826932E-01 -8.75176995E-01 -4.87240456E-01  8.94700563E-01  6.02843921E-04
 -1.08806394E-03  6.95272771E-01  5.24904962E-03  0.00000000E+00 -6.31549898E-03
 -8.50531829E-01 -1.46021089E-02  0.00000000E+00 -4.74826932E-01  8.75176995E-01
  4.87240456E-01 -8.94700563E-01  3.16501824E-02 -9.99404010E-02  6.90601172E-03
 -6.83261099E-01  0.00000000E+00 -4.50190239E-01 -8.82291072E-03  1.33392113E+00
  0.00000000E+00  5.03079670E-01 -7.72600425E-01  4.92589390E-01 -7.51759569E-01
 -3.16501824E-02  9.99404010E-02  6.90601172E-03 -6.83261099E-01  0.00000000E+00
  4.50190239E-01 -8.82291072E-03  1.33392113E+00  0.00000000E+00 -5.03079670E-01
  7.72600425E-01 -4.92589390E-01  7.51759569E-01 -3.67387794E-03  1.25411075E-01
 -2.83654363E-01  1.88258728E-02  0.00000000E+00 -1.79730671E-01  2.49749254E+00
 -4.32889505E-02  0.00000000E+00  6.82006045E-01  6.97431687E-01 -7.25362511E-01
 -5.50155598E-01 -3.67387794E-03  1.25411075E-01  2.83654363E-01 -1.88258728E-02
  0.00000000E+00 -1.79730671E-01 -2.49749254E+00  4.32889505E-02  0.00000000E+00
  6.82006045E-01  6.97431687E-01 -7.25362511E-01 -5.50155598E-01  3.43347369E-02
 -1.20281723E+00 -3.03035727E-02 -1.43502784E-01  0.00000000E+00  1.64442878E+00
  2.63943337E-01  3.04332533E-01  0.00000000E+00  2.79131101E-01 -5.97591855E-01
  1.31365529E-01 -7.30230007E-01  3.43347369E-02 -1.20281723E+00  3.03035727E-02
  1.43502784E-01  0.00000000E+00  1.64442878E+00 -2.63943337E-01 -3.04332533E-01
  0.00000000E+00  2.79131101E-01 -5.97591855E-01  1.31365529E-01 -7.30230007E-01
 -5.13395767E-03 -1.41880834E+00 -6.80664167E-04  6.70950117E-02  0.00000000E+00
  3.78702381E+00  3.19797468E-03 -1.11600524E+00  0.00000000E+00 -1.02884471E-01
 -3.82867888E-01 -1.04789579E-01 -3.85466877E-01  5.13395767E-03  1.41880834E+00
 -6.80664167E-04  6.70950117E-02  0.00000000E+00 -3.78702381E+00  3.19797468E-03
 -1.11600524E+00  0.00000000E+00  1.02884471E-01  3.82867888E-01  1.04789579E-01
  3.85466877E-01
Total SCF Density                          R   N=         351
  2.03558869E+00  9.58674500E-02  1.19552414E-01  3.56528366E-05 -5.78976235E-05
  2.94324120E-01  3.26457895E-03 -1.31677004E-02  7.96254251E-05  3.23243649E-01
 -4.74043939E-27  1.90850622E-26 -8.00914074E-26 -7.39346952E-25  2.01907336E-01
 -3.66311938E-01  2.32316298E-01  1.98673797E-05  5.33547348E-02 -7.72427208E-26
  6.42159971E-01 -1.44888313E-04 -1.92368210E-06  2.50851325E-01 -1.97868357E-04
 -5.35878820E-26  6.65293175E-05  2.22271769E-01  9.62122693E-03  1.95503506E-03
 -6.72085320E-05  1.86806322E-01 -5.94576582E-25  4.18658081E-02 -2.05839722E-04
  1.13279555E-01 -1.38674373E-26 -2.82924681E-27 -5.37770207E-26 -5.94522542E-25
  2.41182475E-01 -6.06310393E-26 -3.20543285E-26 -5.51146008E-25  2.88097439E-01
 -6.35908023E-02  6.12439979E-02 -1.76718364E-01  1.07906368E-01 -8.31125943E-26
  1.80639832E-01 -1.54311991E-01  6.75992308E-02 -3.40324095E-26  1.86950133E-01
  7.49997839E-03  1.82865453E-02 -1.38805899E-01  9.85649832E-02 -8.52705514E-26
  6.28623970E-02 -1.23008971E-01  5.91499226E-02 -3.47481033E-26  1.31221361E-01
  1.02345015E-01 -6.34059021E-02  6.10496587E-02  1.77247196E-01  1.07428865E-01
 -2.28818102E-25  1.80144069E-01  1.54645309E-01  6.71927943E-02 -1.61225810E-25
 -2.89920151E-02 -3.98916290E-02  1.87004258E-01  7.83366399E-03  1.80003380E-02
  1.39421015E-01  9.88791528E-02 -2.00797287E-25  6.22342166E-02  1.23416416E-01
  5.92535342E-02 -1.36817239E-25 -3.98962390E-02 -3.39184201E-02  1.31576474E-01
  1.03025225E-01  2.01254713E-02 -3.17798450E-02  8.22791528E-05  7.97168786E-02
 -1.15429479E-25  3.33477506E-02  6.09079609E-05 -7.37192155E-04  1.04194341E-27
  9.19598976E-03  1.92070635E-02  9.17827755E-03  1.92847999E-02  2.03558869E+00
 -3.17798450E-02  2.78575618E-02 -1.15712231E-04 -8.71422763E-02  1.26192060E-25
  2.52648483E-02 -7.90930060E-05 -3.40504350E-02  4.93229666E-26 -1.28961103E-02
 -1.98952108E-02 -1.29104852E-02 -2.00169769E-02  9.58674500E-02  1.19552414E-01
 -8.22791528E-05  1.15712231E-04  1.60458546E-02 -3.70644748E-04  3.56535813E-26
  5.85449905E-04 -3.61840448E-02 -3.33877140E-04  6.53240463E-26  1.17277080E-02
  1.95910557E-02 -1.17815062E-02 -1.99407609E-02 -3.56528366E-05  5.78976235E-05
  2.94324120E-01 -7.97168786E-02  8.71422763E-02 -3.70644748E-04 -2.46045577E-01
  8.49230443E-26  1.80845854E-01  4.85794039E-05 -1.53876109E-01 -1.01464142E-25
 -3.07243705E-02 -6.12948688E-02 -3.08090235E-02 -6.20582694E-02 -3.26457895E-03
  1.31677004E-02  7.96254251E-05  3.23243649E-01  1.15429479E-25 -1.26192060E-25
  3.56535813E-26  8.49230443E-26  2.01907336E-01 -2.62028459E-25  6.47704152E-26
 -1.01305962E-25  2.41182475E-01  3.96250900E-26  8.06257018E-26  4.94708139E-26
  9.80807507E-26  4.74043939E-27 -1.90850622E-26 -8.00914074E-26 -7.39346952E-25
  2.01907336E-01  3.33477506E-02  2.52648483E-02 -5.85449905E-04 -1.80845854E-01
  2.62028459E-25 -8.28579183E-02 -5.20431362E-04 -5.43198878E-02  7.88468721E-26
 -5.24220661E-02 -4.74672475E-02 -5.27966849E-02 -4.78711601E-02 -3.66311938E-01
  2.32316298E-01 -1.98673797E-05 -5.33547348E-02  7.72427208E-26  6.42159971E-01
 -6.09079609E-05  7.90930060E-05 -3.61840448E-02  4.85794039E-05  6.47704152E-26
  5.20431362E-04 -7.37971795E-02 -5.20958657E-05  9.01743642E-26  4.02479239E-02
  4.05775165E-02 -4.01495335E-02 -4.07546477E-02  1.44888313E-04  1.92368210E-06
  2.50851325E-01 -1.97868357E-04 -5.35878820E-26 -6.65293175E-05  2.22271769E-01
  7.37192155E-04  3.40504350E-02 -3.33877140E-04 -1.53876109E-01 -1.01305962E-25
  5.43198878E-02 -5.20958657E-05 -9.82804429E-02 -2.44962519E-25 -3.44519998E-02
 -4.25899774E-02 -3.45801765E-02 -4.30966869E-02 -9.62122693E-03 -1.95503506E-03
 -6.72085320E-05  1.86806322E-01 -5.94576582E-25 -4.18658081E-02 -2.05839722E-04
  1.13279555E-01 -1.04194341E-27 -4.93229666E-26  6.53240463E-26 -1.01464142E-25
  2.41182475E-01 -7.88468721E-26  9.01743642E-26 -2.44962519E-25  2.88097439E-01
  3.32253949E-26  4.48693388E-26  6.66625482E-26  7.92410290E-26  1.38674373E-26
  2.82924681E-27 -5.37770207E-26 -5.94522542E-25  2.41182475E-01  6.06310393E-26
 -3.20543285E-26 -5.51146008E-25  2.88097439E-01  9.19598976E-03 -1.28961103E-02
 -1.17277080E-02  3.07243705E-02 -3.96250900E-26 -5.24220661E-02 -4.02479239E-02
  3.44519998E-02 -3.32253949E-26  2.23787967E-02  3.07263854E-02 -1.76431692E-02
 -1.32776579E-02 -6.35908023E-02  6.12439979E-02  1.76718364E-01 -1.07906368E-01
  8.31125943E-26  1.80639832E-01  1.54311991E-01 -6.75992308E-02  3.40324095E-26
  1.86950133E-01  1.92070635E-02 -1.98952108E-02 -1.95910557E-02  6.12948688E-02
 -8.06257018E-26 -4.74672475E-02 -4.05775165E-02  4.25899774E-02 -4.48693388E-26
  3.07263854E-02  3.83440323E-02 -1.33350609E-02 -6.12766464E-03  7.49997839E-03
  1.82865453E-02  1.38805899E-01 -9.85649832E-02  8.52705514E-26  6.28623970E-02
  1.23008971E-01 -5.91499226E-02  3.47481033E-26  1.31221361E-01  1.02345015E-01
  9.17827755E-03 -1.29104852E-02  1.17815062E-02  3.08090235E-02 -4.94708139E-26
 -5.27966849E-02  4.01495335E-02  3.45801765E-02 -6.66625482E-26 -1.76431692E-02
 -1.33350609E-02  2.24298025E-02  3.11030115E-02 -6.34059021E-02  6.10496587E-02
 -1.77247196E-01 -1.07428865E-01  2.28818102E-25  1.80144069E-01 -1.54645309E-01
 -6.71927943E-02  1.61225810E-25 -2.89920151E-02 -3.98916290E-02  1.87004258E-01
  1.92847999E-02 -2.00169769E-02  1.99407609E-02  6.20582694E-02 -9.80807507E-26
 -4.78711601E-02  4.07546477E-02  4.30966869E-02 -7.92410290E-26 -1.32776579E-02
 -6.12766464E-03  3.11030115E-02  3.90346946E-02  7.83366399E-03  1.80003380E-02
 -1.39421015E-01 -9.88791528E-02  2.00797287E-25  6.22342166E-02 -1.23416416E-01
 -5.92535342E-02  1.36817239E-25 -3.98962390E-02 -3.39184201E-02  1.31576474E-01
  1.03025225E-01
QEq coupling tensors                       R   N=          36
  9.95621914E-02  4.29275866E-04  1.90284958E-01  2.88159128E-26  3.77347454E-26
 -2.89847150E-01 -2.26313939E-01  2.34511420E-01  3.43372806E-02 -8.59357253E-26
  4.95379601E-26  1.91976659E-01 -2.28913773E-01 -2.33060421E-01  3.68140568E-02
  5.22263897E-25  3.01771516E-25  1.92099717E-01  9.95621914E-02  4.29275866E-04
  1.90284958E-01  3.17915273E-26 -5.52493649E-26 -2.89847150E-01 -2.26313939E-01
  2.34511420E-01  3.43372806E-02  6.58225228E-25 -3.94296386E-25  1.91976659E-01
 -2.28913773E-01 -2.33060421E-01  3.68140568E-02 -2.16700217E-25 -1.33602024E-25
  1.92099717E-01
Mulliken Charges                           R   N=           6
 -4.30722079E-01  2.15576979E-01  2.15145100E-01 -4.30722079E-01  2.15576979E-01
  2.15145100E-01
ONIOM Charges                              I   N=          16
           0           0           0           0           0           0
           0           0           0           0           0           0
           0           0           0           0
ONIOM Multiplicities                       I   N=          16
           1           0           0           0           0           0
           0           0           0           0           0           0
           0           0           0           0
Atom Layers                                I   N=           6
           1           1           1           1           1           1
Atom Modifiers                             I   N=           6
           0           0           0           0           0           0
Force Field                                I                0
Int Atom Modified Types                    I   N=           6
           0           0           0           0           0           0
Link Atoms                                 I   N=           6
           0           0           0           0           0           0