 Entering Gaussian System, Link 0=g09
 Input=gaussian1.gjf
 Output=D:\ChemGo\ChemGo\test\gaussian1.out
 Initial command:
 C:\G09W\l1.exe .\gxx.inp D:\ChemGo\ChemGo\test\gaussian1.out /scrdir=.\
 Entering Link 1 = C:\G09W\l1.exe PID=      1864.
  
 Copyright (c) 1988,1990,1992,1993,1995,1998,2003,2009,2011,
            Gaussian, Inc.  All Rights Reserved.
  
 This is part of the Gaussian(R) 09 program.  It is based on
 the Gaussian(R) 03 system (copyright 2003, Gaussian, Inc.),
 the Gaussian(R) 98 system (copyright 1998, Gaussian, Inc.),
 the Gaussian(R) 94 system (copyright 1995, Gaussian, Inc.),
 the Gaussian 92(TM) system (copyright 1992, Gaussian, Inc.),
 the Gaussian 90(TM) system (copyright 1990, Gaussian, Inc.),
 the Gaussian 88(TM) system (copyright 1988, Gaussian, Inc.),
 the Gaussian 86(TM) system (copyright 1986, Carnegie Mellon
 University), and the Gaussian 82(TM) system (copyright 1983,
 Carnegie Mellon University). Gaussian is a federally registered
 trademark of Gaussian, Inc.
  
 This software contains proprietary and confidential information,
 including trade secrets, belonging to Gaussian, Inc.
  
 This software is provided under written license and may be
 used, copied, transmitted, or stored only in accord with that
 written license.
  
 The following legend is applicable only to US Government
 contracts under FAR:
  
                    RESTRICTED RIGHTS LEGEND
  
 Use, reproduction and disclosure by the US Government is
 subject to restrictions as set forth in subparagraphs (a)
 and (c) of the Commercial Computer Software - Restricted
 Rights clause in FAR 52.227-19.
  
 Gaussian, Inc.
 340 Quinnipiac St., Bldg. 40, Wallingford CT 06492
  
  
 ---------------------------------------------------------------
 Warning -- This program may not be used in any manner that
 competes with the business of Gaussian, Inc. or will provide
 assistance to any competitor of Gaussian, Inc.  The licensee
 of this program is prohibited from giving any competitor of
 Gaussian, Inc. access to this program.  By using this program,
 the user acknowledges that Gaussian, Inc. is engaged in the
 business of creating and licensing software in the field of
 computational chemistry and represents and warrants to the
 licensee that it is not a competitor of Gaussian, Inc. and that
 it will not use this program in any manner prohibited above.
 ---------------------------------------------------------------
  

 Cite this work as:
 Gaussian 09, Revision C.01,
 M. J. Frisch, G. W. Trucks, H. B. Schlegel, G. E. Scuseria, 
 M. A. Robb, J. R. Cheeseman, G. Scalmani, V. Barone, B. Mennucci, 
 G. A. Petersson, H. Nakatsuji, M. Caricato, X. Li, H. P. Hratchian, 
 A. F. Izmaylov, J. Bloino, G. Zheng, J. L. Sonnenberg, M. Hada, 
 M. Ehara, K. Toyota, R. Fukuda, J. Hasegawa, M. Ishida, T. Nakajima, 
 Y. Honda, O. Kitao, H. Nakai, T. Vreven, J. A. Montgomery, Jr., 
 J. E. Peralta, F. Ogliaro, M. Bearpark, J. J. Heyd, E. Brothers, 
 K. N. Kudin, V. N. Staroverov, T. Keith, R. Kobayashi, J. Normand, 
 K. Raghavachari, A. Rendell, J. C. Burant, S. S. Iyengar, J. Tomasi, 
 M. Cossi, N. Rega, J. M. Millam, M. Klene, J. E. Knox, J. B. Cross, 
 V. Bakken, C. Adamo, J. Jaramillo, R. Gomperts, R. E. Stratmann, 
 O. Yazyev, A. J. Austin, R. Cammi, C. Pomelli, J. W. Ochterski, 
 R. L. Martin, K. Morokuma, V. G. Zakrzewski, G. A. Voth, 
 P. Salvador, J. J. Dannenberg, S. Dapprich, A. D. Daniels, 
 O. Farkas, J. B. Foresman, J. V. Ortiz, J. Cioslowski, 
 and D. J. Fox, Gaussian, Inc., Wallingford CT, 2010.
 
 ******************************************
 Gaussian 09:  IA32W-G09RevC.01 23-Sep-2011
                08-Aug-2019 
 ******************************************
 %mem=1000mb
 ----------------------------------------
 #p b3lyp/6-31g* freq=noraman IOP(7/33=1)
 ----------------------------------------
 1/10=4,30=1,38=1/1,3;
 2/12=2,17=6,18=5,40=1/2;
 3/5=1,6=6,7=1,11=2,16=1,25=1,30=1,71=2,74=-5/1,2,3;
 4//1;
 5/5=2,38=5,98=1/2;
 8/6=4,10=90,11=11/1;
 11/6=1,8=1,9=11,15=111,16=1/1,2,10;
 10/6=1/2;
 6/7=2,8=2,9=2,10=2,18=1,28=1/1;
 7/8=1,10=1,25=1,33=1/1,2,3,16;
 1/10=4,30=1/3;
 99//99;
 Leave Link    1 at Thu Aug 08 20:05:52 2019, MaxMem=  131072000 cpu:       0.0
 (Enter C:\G09W\l101.exe)
 ----
 ffff
 ----
 Charge =  0 Multiplicity = 1
 Symbolic Z-Matrix:
 6                     0.        0.        0. 
 6                     0.        0.        2.84511 
 8                     1.89912   0.        4.13906 
 1                    -1.89405   0.        3.74769 
 1                     1.9425    0.       -0.70115 
 1                    -1.0073   -1.66997  -0.70592 
 1                    -1.0073    1.66997  -0.70592 
 
 NAtoms=      7 NQM=        0 NQMF=       0 NMMI=      7 NMMIF=      0
                NMic=       0 NMicF=      0.
                    Isotopes and Nuclear Properties:
 (Nuclear quadrupole moments (NQMom) in fm**2, nuclear magnetic moments (NMagM)
  in nuclear magnetons)

  Atom         1           2           3           4           5           6           7
 IAtWgt=          12          12          16           1           1           1           1
 AtmWgt=  12.0000000  12.0000000  15.9949146   1.0078250   1.0078250   1.0078250   1.0078250
 NucSpn=           0           0           0           1           1           1           1
 AtZEff=   0.0000000   0.0000000   0.0000000   0.0000000   0.0000000   0.0000000   0.0000000
 NQMom=    0.0000000   0.0000000   0.0000000   0.0000000   0.0000000   0.0000000   0.0000000
 NMagM=    0.0000000   0.0000000   0.0000000   2.7928460   2.7928460   2.7928460   2.7928460
 Leave Link  101 at Thu Aug 08 20:05:52 2019, MaxMem=  131072000 cpu:       0.0
 (Enter C:\G09W\l103.exe)

 GradGradGradGradGradGradGradGradGradGradGradGradGradGradGradGradGradGrad
 Berny optimization.
 Initialization pass.
 Trust Radius=3.00D-01 FncErr=1.00D-07 GrdErr=1.00D-07
 Number of steps in this run=      2 maximum allowed number of steps=      2.
 GradGradGradGradGradGradGradGradGradGradGradGradGradGradGradGradGradGrad

 Leave Link  103 at Thu Aug 08 20:05:52 2019, MaxMem=  131072000 cpu:       0.0
 (Enter C:\G09W\l202.exe)
                          Input orientation:                          
 ---------------------------------------------------------------------
 Center     Atomic      Atomic             Coordinates (Angstroms)
 Number     Number       Type             X           Y           Z
 ---------------------------------------------------------------------
      1          6           0        0.000000    0.000000    0.000000
      2          6           0        0.000000    0.000000    2.845112
      3          8           0        1.899116    0.000000    4.139063
      4          1           0       -1.894048    0.000000    3.747689
      5          1           0        1.942501    0.000000   -0.701146
      6          1           0       -1.007295   -1.669972   -0.705917
      7          1           0       -1.007295    1.669972   -0.705917
 ---------------------------------------------------------------------
                    Distance matrix (angstroms):
                    1          2          3          4          5
     1  C    0.000000
     2  C    2.845112   0.000000
     3  O    4.553952   2.298032   0.000000
     4  H    4.199118   2.098109   3.813302   0.000000
     5  H    2.065167   4.043421   4.840403   5.874627   0.000000
     6  H    2.074071   4.051328   5.891507   4.838361   3.389709
     7  H    2.074071   4.051328   5.891507   4.838361   3.389709
                    6          7
     6  H    0.000000
     7  H    3.339944   0.000000
 Stoichiometry    C2H4O
 Framework group  CS[SG(C2H2O),X(H2)]
 Deg. of freedom    10
 Full point group                 CS      NOp   2
 Largest Abelian subgroup         CS      NOp   2
 Largest concise Abelian subgroup CS      NOp   2
                         Standard orientation:                         
 ---------------------------------------------------------------------
 Center     Atomic      Atomic             Coordinates (Angstroms)
 Number     Number       Type             X           Y           Z
 ---------------------------------------------------------------------
      1          6           0       -1.781837   -1.338061    0.000000
      2          6           0        0.000000    0.879984    0.000000
      3          8           0        2.290923    0.699367    0.000000
      4          1           0       -0.911331    2.769835    0.000000
      5          1           0       -0.706580   -3.101222    0.000000
      6          1           0       -3.009224   -1.257543    1.669972
      7          1           0       -3.009224   -1.257543   -1.669972
 ---------------------------------------------------------------------
 Rotational constants (GHZ):     15.8108420      2.8288847      2.5348656
 Leave Link  202 at Thu Aug 08 20:05:52 2019, MaxMem=  131072000 cpu:       0.0
 (Enter C:\G09W\l301.exe)
 Standard basis: 6-31G(d) (6D, 7F)
 Ernie: Thresh=  0.10000D-02 Tol=  0.10000D-05 Strict=F.
 There are    39 symmetry adapted basis functions of A'  symmetry.
 There are    14 symmetry adapted basis functions of A"  symmetry.
 Integral buffers will be    262144 words long.
 Raffenetti 2 integral format.
 Two-electron integral symmetry is turned on.
    53 basis functions,   100 primitive gaussians,    53 cartesian basis functions
    12 alpha electrons       12 beta electrons
       nuclear repulsion energy        36.7492453369 Hartrees.
 IExCor=  402 DFT=T Ex+Corr=B3LYP ExCW=0 ScaHFX=  0.200000
 ScaDFX=  0.800000  0.720000  1.000000  0.810000 ScalE2=  1.000000  1.000000
 IRadAn=      0 IRanWt=     -1 IRanGd=            0 ICorTp=0
 NAtoms=    7 NActive=    7 NUniq=    6 SFac= 1.36D+00 NAtFMM=   60 NAOKFM=F Big=F
 Leave Link  301 at Thu Aug 08 20:05:52 2019, MaxMem=  131072000 cpu:       0.0
 (Enter C:\G09W\l302.exe)
 NPDir=0 NMtPBC=     1 NCelOv=     1 NCel=       1 NClECP=     1 NCelD=      1
         NCelK=      1 NCelE2=     1 NClLst=     1 CellRange=     0.0.
 One-electron integrals computed using PRISM.
 One-electron integral symmetry used in STVInt
 NBasis=    53 RedAO= T  NBF=    39    14
 NBsUse=    53 1.00D-06 NBFU=    39    14
 Precomputing XC quadrature grid using
 IXCGrd= 2 IRadAn=           0 IRanWt=          -1 IRanGd=           0 AccXCQ= 0.00D+00.
 NRdTot=     438 NPtTot=       55350 NUsed=       57404 NTot=       57420
 NSgBfM=    53    53    53    53    53 NAtAll=     7     7.
 Leave Link  302 at Thu Aug 08 20:05:52 2019, MaxMem=  131072000 cpu:       0.0
 (Enter C:\G09W\l303.exe)
 DipDrv:  MaxL=1.
 Leave Link  303 at Thu Aug 08 20:05:52 2019, MaxMem=  131072000 cpu:       0.0
 (Enter C:\G09W\l401.exe)
 Harris functional with IExCor=  402 diagonalized for initial guess.
 ExpMin= 1.61D-01 ExpMax= 5.48D+03 ExpMxC= 8.25D+02 IAcc=1 IRadAn=         1 AccDes= 0.00D+00
 HarFok:  IExCor=  402 AccDes= 0.00D+00 IRadAn=         1 IDoV= 1
 ScaDFX=  1.000000  1.000000  1.000000  1.000000
 FoFCou: FMM=F IPFlag=           0 FMFlag=      100000 FMFlg1=           0
         NFxFlg=           0 DoJE=T BraDBF=F KetDBF=T FulRan=T
         Omega=  0.000000  0.000000  1.000000  0.000000  0.000000 ICntrl=     500 IOpCl=  0
         NMat0=    1 NMatS0=    1 NMatT0=    0 NMatD0=    1 NMtDS0=    0 NMtDT0=    0
         I1Cent=           4 NGrid=           0.
 Petite list used in FoFCou.
 Harris En= -152.977265851633    
 Initial guess orbital symmetries:
       Occupied  (A') (A') (A') (A') (A') (A') (A') (A') (A") (A')
                 (A") (A')
       Virtual   (A') (A") (A') (A') (A') (A") (A') (A") (A') (A')
                 (A') (A") (A') (A') (A') (A') (A') (A') (A") (A')
                 (A") (A') (A') (A') (A") (A') (A") (A') (A") (A')
                 (A") (A') (A') (A") (A') (A") (A') (A') (A') (A')
                 (A')
 The electronic state of the initial guess is 1-A'.
 Leave Link  401 at Thu Aug 08 20:05:53 2019, MaxMem=  131072000 cpu:       1.0
 (Enter C:\G09W\l502.exe)
 Closed shell SCF:
 Requested convergence on RMS density matrix=1.00D-08 within 128 cycles.
 Requested convergence on MAX density matrix=1.00D-06.
 Requested convergence on             energy=1.00D-06.
 No special actions if energy rises.
 Using DIIS extrapolation, IDIIS=  1040.
 Integral symmetry usage will be decided dynamically.
        57335 words used for storage of precomputed grid.
 Keep R1 ints in memory in canonical form, NReq=1977601.
 IEnd=       84587 IEndB=       84587 NGot=   131072000 MDV=   129982292
 LenX=   129982292 LenY=   129979042
 Symmetry not used in FoFDir.
 MinBra= 0 MaxBra= 2 Meth= 1.
 IRaf=       0 NMat=   1 IRICut=       1 DoRegI=T DoRafI=F ISym2E= 0 JSym2E=0.
 Integral accuracy reduced to 1.0D-05 until final iterations.

 Cycle   1  Pass 0  IDiag  1:
 E= -152.002686314073    
 DIIS: error= 1.20D-01 at cycle   1 NSaved=   1.
 NSaved= 1 IEnMin= 1 EnMin= -152.002686314073     IErMin= 1 ErrMin= 1.20D-01
 ErrMax= 1.20D-01 EMaxC= 1.00D-01 BMatC= 5.21D-01 BMatP= 5.21D-01
 IDIUse=3 WtCom= 0.00D+00 WtEn= 1.00D+00
 Coeff-Com:  0.100D+01
 Coeff-En:   0.100D+01
 Coeff:      0.100D+01
 Gap=     0.026 Goal=   None    Shift=    0.000
 GapD=    0.026 DampG=0.250 DampE=0.250 DampFc=0.2500 IDamp=-1.
 Damping current iteration by 2.50D-01
 RMSDP=4.14D-02 MaxDP=6.34D-01              OVMax= 8.55D-01

 Cycle   2  Pass 0  IDiag  1:
 E= -152.096416997893     Delta-E=       -0.093730683820 Rises=F Damp=T
 DIIS: error= 3.09D-02 at cycle   2 NSaved=   2.
 NSaved= 2 IEnMin= 2 EnMin= -152.096416997893     IErMin= 2 ErrMin= 3.09D-02
 ErrMax= 3.09D-02 EMaxC= 1.00D-01 BMatC= 5.52D-02 BMatP= 5.21D-01
 IDIUse=3 WtCom= 6.91D-01 WtEn= 3.09D-01
 Coeff-Com:  0.219D+00 0.781D+00
 Coeff-En:   0.468D+00 0.532D+00
 Coeff:      0.296D+00 0.704D+00
 Gap=    -0.008 Goal=   None    Shift=    0.000
 RMSDP=1.24D-02 MaxDP=1.43D-01 DE=-9.37D-02 OVMax= 9.66D-01

 Cycle   3  Pass 0  IDiag  1:
 E= -152.663394899582     Delta-E=       -0.566977901689 Rises=F Damp=F
 DIIS: error= 4.23D-02 at cycle   3 NSaved=   3.
 NSaved= 3 IEnMin= 3 EnMin= -152.663394899582     IErMin= 2 ErrMin= 3.09D-02
 ErrMax= 4.23D-02 EMaxC= 1.00D-01 BMatC= 7.12D-02 BMatP= 5.52D-02
 IDIUse=2 WtCom= 0.00D+00 WtEn= 1.00D+00
 Coeff-En:   0.688D-01 0.000D+00 0.931D+00
 Coeff:      0.688D-01 0.000D+00 0.931D+00
 Gap=     0.117 Goal=   None    Shift=    0.000
 RMSDP=3.50D-02 MaxDP=5.21D-01 DE=-5.67D-01 OVMax= 7.92D-01

 Cycle   4  Pass 0  IDiag  1:
 E= -142.583557824231     Delta-E=       10.079837075351 Rises=F Damp=F
 DIIS: error= 2.22D-01 at cycle   4 NSaved=   4.
 NSaved= 4 IEnMin= 3 EnMin= -152.663394899582     IErMin= 2 ErrMin= 3.09D-02
 ErrMax= 2.22D-01 EMaxC= 1.00D-01 BMatC= 3.51D+00 BMatP= 5.52D-02
 IDIUse=2 WtCom= 0.00D+00 WtEn= 1.00D+00
 EnCoef did     3 forward-backward iterations
 Coeff-En:   0.154D+00 0.000D+00 0.786D+00 0.600D-01
 Coeff:      0.154D+00 0.000D+00 0.786D+00 0.600D-01
 Gap=    -0.059 Goal=   None    Shift=    0.000
 RMSDP=3.00D-02 MaxDP=4.15D-01 DE= 1.01D+01 OVMax= 9.99D-01

 Cycle   5  Pass 0  IDiag  1:
 E= -151.819886758311     Delta-E=       -9.236328934080 Rises=F Damp=F
 DIIS: error= 1.74D-01 at cycle   5 NSaved=   5.
 NSaved= 5 IEnMin= 3 EnMin= -152.663394899582     IErMin= 2 ErrMin= 3.09D-02
 ErrMax= 1.74D-01 EMaxC= 1.00D-01 BMatC= 7.18D-01 BMatP= 5.52D-02
 IDIUse=2 WtCom= 0.00D+00 WtEn= 1.00D+00
 Coeff-En:   0.000D+00 0.000D+00 0.773D+00 0.000D+00 0.227D+00
 Coeff:      0.000D+00 0.000D+00 0.773D+00 0.000D+00 0.227D+00
 Gap=     0.014 Goal=   None    Shift=    0.000
 RMSDP=1.28D-02 MaxDP=1.89D-01 DE=-9.24D+00 OVMax= 3.77D-01

 Cycle   6  Pass 0  IDiag  1:
 E= -152.569087841978     Delta-E=       -0.749201083667 Rises=F Damp=F
 DIIS: error= 5.69D-02 at cycle   6 NSaved=   6.
 NSaved= 6 IEnMin= 3 EnMin= -152.663394899582     IErMin= 2 ErrMin= 3.09D-02
 ErrMax= 5.69D-02 EMaxC= 1.00D-01 BMatC= 9.76D-02 BMatP= 5.52D-02
 IDIUse=2 WtCom= 0.00D+00 WtEn= 1.00D+00
 EnCoef did     6 forward-backward iterations
 Coeff-En:   0.240D-01 0.000D+00 0.593D+00 0.000D+00 0.946D-01 0.289D+00
 Coeff:      0.240D-01 0.000D+00 0.593D+00 0.000D+00 0.946D-01 0.289D+00
 Gap=     0.046 Goal=   None    Shift=    0.000
 RMSDP=1.26D-02 MaxDP=1.39D-01 DE=-7.49D-01 OVMax= 5.51D-01

 Cycle   7  Pass 0  IDiag  1:
 E= -152.637651809107     Delta-E=       -0.068563967129 Rises=F Damp=F
 DIIS: error= 5.20D-02 at cycle   7 NSaved=   7.
 NSaved= 7 IEnMin= 3 EnMin= -152.663394899582     IErMin= 2 ErrMin= 3.09D-02
 ErrMax= 5.20D-02 EMaxC= 1.00D-01 BMatC= 1.47D-01 BMatP= 5.52D-02
 IDIUse=2 WtCom= 0.00D+00 WtEn= 1.00D+00
 EnCoef did     3 forward-backward iterations
 Coeff-En:   0.000D+00 0.000D+00 0.414D+00 0.000D+00 0.000D+00 0.289D+00
 Coeff-En:   0.298D+00
 Coeff:      0.000D+00 0.000D+00 0.414D+00 0.000D+00 0.000D+00 0.289D+00
 Coeff:      0.298D+00
 Gap=     0.015 Goal=   None    Shift=    0.000
 RMSDP=1.46D-02 MaxDP=2.47D-01 DE=-6.86D-02 OVMax= 6.12D-01

 Cycle   8  Pass 0  IDiag  1:
 E= -151.920262650043     Delta-E=        0.717389159065 Rises=F Damp=F
 DIIS: error= 2.39D-01 at cycle   8 NSaved=   8.
 NSaved= 8 IEnMin= 3 EnMin= -152.663394899582     IErMin= 2 ErrMin= 3.09D-02
 ErrMax= 2.39D-01 EMaxC= 1.00D-01 BMatC= 9.87D-01 BMatP= 5.52D-02
 IDIUse=2 WtCom= 0.00D+00 WtEn= 1.00D+00
 EnCoef did    11 forward-backward iterations
 Coeff-En:   0.000D+00 0.000D+00 0.370D+00 0.000D+00 0.000D+00 0.211D+00
 Coeff-En:   0.351D+00 0.681D-01
 Coeff:      0.000D+00 0.000D+00 0.370D+00 0.000D+00 0.000D+00 0.211D+00
 Coeff:      0.351D+00 0.681D-01
 Gap=     0.017 Goal=   None    Shift=    0.000
 RMSDP=9.52D-03 MaxDP=1.66D-01 DE= 7.17D-01 OVMax= 4.07D-01

 Cycle   9  Pass 0  IDiag  1:
 E= -152.797470963581     Delta-E=       -0.877208313538 Rises=F Damp=F
 DIIS: error= 2.48D-02 at cycle   9 NSaved=   9.
 NSaved= 9 IEnMin= 9 EnMin= -152.797470963581     IErMin= 9 ErrMin= 2.48D-02
 ErrMax= 2.48D-02 EMaxC= 1.00D-01 BMatC= 1.65D-02 BMatP= 5.52D-02
 IDIUse=3 WtCom= 7.52D-01 WtEn= 2.48D-01
 EnCoef did     2 forward-backward iterations
 Coeff-Com: -0.235D-02 0.365D-01 0.106D+00 0.242D-02-0.152D-01-0.350D-01
 Coeff-Com:  0.192D+00-0.486D-01 0.764D+00
 Coeff-En:   0.000D+00 0.000D+00 0.390D-01 0.000D+00 0.000D+00 0.000D+00
 Coeff-En:   0.180D+00 0.000D+00 0.781D+00
 Coeff:     -0.176D-02 0.274D-01 0.897D-01 0.182D-02-0.114D-01-0.263D-01
 Coeff:      0.189D+00-0.365D-01 0.768D+00
 Gap=     0.042 Goal=   None    Shift=    0.000
 RMSDP=3.91D-03 MaxDP=4.83D-02 DE=-8.77D-01 OVMax= 1.68D-01

 Cycle  10  Pass 0  IDiag  1:
 E= -152.791008116215     Delta-E=        0.006462847365 Rises=F Damp=F
 DIIS: error= 2.65D-02 at cycle  10 NSaved=  10.
 NSaved=10 IEnMin= 9 EnMin= -152.797470963581     IErMin= 9 ErrMin= 2.48D-02
 ErrMax= 2.65D-02 EMaxC= 1.00D-01 BMatC= 2.31D-02 BMatP= 1.65D-02
 IDIUse=2 WtCom= 0.00D+00 WtEn= 1.00D+00
 Coeff-En:   0.000D+00 0.000D+00 0.000D+00 0.000D+00 0.000D+00 0.000D+00
 Coeff-En:   0.000D+00 0.000D+00 0.542D+00 0.458D+00
 Coeff:      0.000D+00 0.000D+00 0.000D+00 0.000D+00 0.000D+00 0.000D+00
 Coeff:      0.000D+00 0.000D+00 0.542D+00 0.458D+00
 Gap=     0.044 Goal=   None    Shift=    0.000
 RMSDP=2.85D-03 MaxDP=3.46D-02 DE= 6.46D-03 OVMax= 8.22D-02

 Cycle  11  Pass 0  IDiag  1:
 E= -152.799864029089     Delta-E=       -0.008855912873 Rises=F Damp=F
 DIIS: error= 1.45D-02 at cycle  11 NSaved=  11.
 NSaved=11 IEnMin=11 EnMin= -152.799864029089     IErMin=11 ErrMin= 1.45D-02
 ErrMax= 1.45D-02 EMaxC= 1.00D-01 BMatC= 9.18D-03 BMatP= 1.65D-02
 IDIUse=3 WtCom= 8.55D-01 WtEn= 1.45D-01
 EnCoef did     3 forward-backward iterations
 Coeff-Com: -0.467D-02-0.206D-02-0.344D-01 0.444D-03 0.872D-02-0.160D-01
 Coeff-Com: -0.533D-01-0.180D-01 0.442D+00 0.413D+00 0.264D+00
 Coeff-En:   0.000D+00 0.000D+00 0.000D+00 0.000D+00 0.000D+00 0.000D+00
 Coeff-En:   0.000D+00 0.000D+00 0.441D+00 0.387D+00 0.172D+00
 Coeff:     -0.400D-02-0.176D-02-0.294D-01 0.380D-03 0.746D-02-0.137D-01
 Coeff:     -0.456D-01-0.154D-01 0.442D+00 0.409D+00 0.251D+00
 Gap=     0.040 Goal=   None    Shift=    0.000
 RMSDP=2.10D-03 MaxDP=2.75D-02 DE=-8.86D-03 OVMax= 5.90D-02

 Cycle  12  Pass 0  IDiag  1:
 E= -152.816398502820     Delta-E=       -0.016534473731 Rises=F Damp=F
 DIIS: error= 8.43D-04 at cycle  12 NSaved=  12.
 NSaved=12 IEnMin=12 EnMin= -152.816398502820     IErMin=12 ErrMin= 8.43D-04
 ErrMax= 8.43D-04 EMaxC= 1.00D-01 BMatC= 1.90D-05 BMatP= 9.18D-03
 IDIUse=3 WtCom= 9.92D-01 WtEn= 8.43D-03
 Coeff-Com:  0.124D-02 0.195D-02-0.102D-01 0.289D-03-0.133D-02 0.109D-02
 Coeff-Com: -0.146D-01-0.158D-02 0.174D-01 0.166D-01 0.394D-01 0.950D+00
 Coeff-En:   0.000D+00 0.000D+00 0.000D+00 0.000D+00 0.000D+00 0.000D+00
 Coeff-En:   0.000D+00 0.000D+00 0.000D+00 0.000D+00 0.000D+00 0.100D+01
 Coeff:      0.123D-02 0.194D-02-0.102D-01 0.286D-03-0.132D-02 0.108D-02
 Coeff:     -0.145D-01-0.157D-02 0.173D-01 0.164D-01 0.391D-01 0.950D+00
 Gap=     0.041 Goal=   None    Shift=    0.000
 RMSDP=3.40D-04 MaxDP=3.53D-03 DE=-1.65D-02 OVMax= 1.23D-02

 Cycle  13  Pass 0  IDiag  1:
 E= -152.816218394132     Delta-E=        0.000180108688 Rises=F Damp=F
 DIIS: error= 2.18D-03 at cycle  13 NSaved=  13.
 NSaved=13 IEnMin=12 EnMin= -152.816398502820     IErMin=12 ErrMin= 8.43D-04
 ErrMax= 2.18D-03 EMaxC= 1.00D-01 BMatC= 1.99D-04 BMatP= 1.90D-05
 IDIUse=3 WtCom= 9.92D-01 WtEn= 8.43D-03
 Rare condition: small coef for last iteration:  0.000D+00
 Coeff-Com:  0.149D-02 0.293D-03 0.584D-03 0.837D-04-0.935D-03 0.874D-03
 Coeff-Com:  0.295D-02 0.155D-02-0.417D-01-0.104D+00-0.366D-01 0.674D+00
 Coeff-Com:  0.501D+00
 Coeff-En:   0.000D+00 0.000D+00 0.000D+00 0.000D+00 0.000D+00 0.000D+00
 Coeff-En:   0.000D+00 0.000D+00 0.402D-01 0.000D+00 0.000D+00 0.000D+00
 Coeff-En:   0.960D+00
 Coeff:      0.149D-02 0.293D-03 0.584D-03 0.837D-04-0.935D-03 0.874D-03
 Coeff:      0.295D-02 0.155D-02-0.417D-01-0.104D+00-0.366D-01 0.674D+00
 Coeff:      0.501D+00
 Gap=     0.040 Goal=   None    Shift=    0.000
 RMSDP=2.56D-04 MaxDP=3.05D-03 DE= 1.80D-04 OVMax= 1.09D-02

 Cycle  14  Pass 0  IDiag  1:
 E= -152.816466649932     Delta-E=       -0.000248255800 Rises=F Damp=F
 DIIS: error= 6.11D-04 at cycle  14 NSaved=  14.
 NSaved=14 IEnMin=14 EnMin= -152.816466649932     IErMin=14 ErrMin= 6.11D-04
 ErrMax= 6.11D-04 EMaxC= 1.00D-01 BMatC= 1.11D-05 BMatP= 1.90D-05
 IDIUse=3 WtCom= 9.94D-01 WtEn= 6.11D-03
 Coeff-Com:  0.126D-02-0.368D-03 0.105D-02 0.787D-04-0.352D-03 0.166D-03
 Coeff-Com:  0.603D-03 0.101D-02-0.256D-01-0.692D-01-0.195D-01 0.232D+00
 Coeff-Com:  0.302D+00 0.576D+00
 Coeff-En:   0.000D+00 0.000D+00 0.000D+00 0.000D+00 0.000D+00 0.000D+00
 Coeff-En:   0.000D+00 0.000D+00 0.000D+00 0.000D+00 0.000D+00 0.000D+00
 Coeff-En:   0.000D+00 0.100D+01
 Coeff:      0.125D-02-0.366D-03 0.104D-02 0.783D-04-0.350D-03 0.165D-03
 Coeff:      0.600D-03 0.101D-02-0.254D-01-0.687D-01-0.194D-01 0.231D+00
 Coeff:      0.300D+00 0.579D+00
 Gap=     0.040 Goal=   None    Shift=    0.000
 RMSDP=8.57D-05 MaxDP=1.31D-03 DE=-2.48D-04 OVMax= 2.91D-03

 Cycle  15  Pass 0  IDiag  1:
 E= -152.816483360660     Delta-E=       -0.000016710729 Rises=F Damp=F
 DIIS: error= 1.33D-04 at cycle  15 NSaved=  15.
 NSaved=15 IEnMin=15 EnMin= -152.816483360660     IErMin=15 ErrMin= 1.33D-04
 ErrMax= 1.33D-04 EMaxC= 1.00D-01 BMatC= 5.43D-07 BMatP= 1.11D-05
 IDIUse=3 WtCom= 9.99D-01 WtEn= 1.33D-03
 Coeff-Com:  0.286D-04-0.288D-03 0.129D-02 0.228D-04-0.263D-03 0.399D-03
 Coeff-Com:  0.129D-02 0.223D-03-0.794D-02-0.139D-01-0.314D-02-0.152D+00
 Coeff-Com: -0.784D-02 0.377D+00 0.806D+00
 Coeff-En:   0.000D+00 0.000D+00 0.000D+00 0.000D+00 0.000D+00 0.000D+00
 Coeff-En:   0.000D+00 0.000D+00 0.000D+00 0.000D+00 0.000D+00 0.000D+00
 Coeff-En:   0.000D+00 0.000D+00 0.100D+01
 Coeff:      0.286D-04-0.288D-03 0.129D-02 0.228D-04-0.263D-03 0.399D-03
 Coeff:      0.128D-02 0.223D-03-0.793D-02-0.139D-01-0.314D-02-0.152D+00
 Coeff:     -0.783D-02 0.376D+00 0.806D+00
 Gap=     0.041 Goal=   None    Shift=    0.000
 RMSDP=7.38D-05 MaxDP=1.12D-03 DE=-1.67D-05 OVMax= 2.61D-03

 Cycle  16  Pass 0  IDiag  1:
 E= -152.816486842432     Delta-E=       -0.000003481771 Rises=F Damp=F
 DIIS: error= 4.61D-05 at cycle  16 NSaved=  16.
 NSaved=16 IEnMin=16 EnMin= -152.816486842432     IErMin=16 ErrMin= 4.61D-05
 ErrMax= 4.61D-05 EMaxC= 1.00D-01 BMatC= 7.47D-08 BMatP= 5.43D-07
 IDIUse=1 WtCom= 1.00D+00 WtEn= 0.00D+00
 Coeff-Com: -0.152D-03 0.584D-04 0.276D-03-0.123D-06-0.494D-04 0.446D-04
 Coeff-Com: -0.233D-03-0.112D-03 0.207D-02 0.719D-02 0.296D-02-0.679D-01
 Coeff-Com: -0.343D-01-0.361D-01 0.156D+00 0.970D+00
 Coeff:     -0.152D-03 0.584D-04 0.276D-03-0.123D-06-0.494D-04 0.446D-04
 Coeff:     -0.233D-03-0.112D-03 0.207D-02 0.719D-02 0.296D-02-0.679D-01
 Coeff:     -0.343D-01-0.361D-01 0.156D+00 0.970D+00
 Gap=     0.041 Goal=   None    Shift=    0.000
 RMSDP=2.45D-05 MaxDP=3.14D-04 DE=-3.48D-06 OVMax= 9.02D-04

 Cycle  17  Pass 0  IDiag  1:
 E= -152.816486992377     Delta-E=       -0.000000149945 Rises=F Damp=F
 DIIS: error= 7.12D-05 at cycle  17 NSaved=  17.
 NSaved=17 IEnMin=17 EnMin= -152.816486992377     IErMin=16 ErrMin= 4.61D-05
 ErrMax= 7.12D-05 EMaxC= 1.00D-01 BMatC= 1.60D-07 BMatP= 7.47D-08
 IDIUse=1 WtCom= 1.00D+00 WtEn= 0.00D+00
 Coeff-Com:  0.348D-05 0.515D-04-0.161D-03-0.172D-05 0.261D-04-0.599D-04
 Coeff-Com: -0.135D-03-0.455D-05 0.246D-02-0.107D-02-0.439D-04 0.231D-01
 Coeff-Com:  0.119D-01-0.474D-01-0.107D+00-0.265D-02 0.112D+01
 Coeff:      0.348D-05 0.515D-04-0.161D-03-0.172D-05 0.261D-04-0.599D-04
 Coeff:     -0.135D-03-0.455D-05 0.246D-02-0.107D-02-0.439D-04 0.231D-01
 Coeff:      0.119D-01-0.474D-01-0.107D+00-0.265D-02 0.112D+01
 Gap=     0.041 Goal=   None    Shift=    0.000
 RMSDP=7.39D-06 MaxDP=9.71D-05 DE=-1.50D-07 OVMax= 2.69D-04

 Initial convergence to 1.0D-05 achieved.  Increase integral accuracy.
 Cycle  18  Pass 1  IDiag  1:
 E= -152.816474945117     Delta-E=        0.000012047260 Rises=F Damp=F
 DIIS: error= 3.23D-05 at cycle   1 NSaved=   1.
 NSaved= 1 IEnMin= 1 EnMin= -152.816474945117     IErMin= 1 ErrMin= 3.23D-05
 ErrMax= 3.23D-05 EMaxC= 1.00D-01 BMatC= 3.21D-08 BMatP= 3.21D-08
 IDIUse=1 WtCom= 1.00D+00 WtEn= 0.00D+00
 Coeff-Com:  0.100D+01
 Coeff:      0.100D+01
 Gap=     0.041 Goal=   None    Shift=    0.000
 RMSDP=7.39D-06 MaxDP=9.71D-05 DE= 1.20D-05 OVMax= 3.91D-04

 Cycle  19  Pass 1  IDiag  1:
 E= -152.816474516209     Delta-E=        0.000000428908 Rises=F Damp=F
 DIIS: error= 1.07D-04 at cycle   2 NSaved=   2.
 NSaved= 2 IEnMin= 1 EnMin= -152.816474945117     IErMin= 1 ErrMin= 3.23D-05
 ErrMax= 1.07D-04 EMaxC= 1.00D-01 BMatC= 3.93D-07 BMatP= 3.21D-08
 IDIUse=3 WtCom= 4.92D-01 WtEn= 5.08D-01
 Coeff-Com:  0.853D+00 0.147D+00
 Coeff-En:   0.932D+00 0.684D-01
 Coeff:      0.893D+00 0.107D+00
 Gap=     0.041 Goal=   None    Shift=    0.000
 RMSDP=1.28D-05 MaxDP=1.43D-04 DE= 4.29D-07 OVMax= 5.72D-04

 Cycle  20  Pass 1  IDiag  1:
 E= -152.816474903583     Delta-E=       -0.000000387374 Rises=F Damp=F
 DIIS: error= 4.79D-05 at cycle   3 NSaved=   3.
 NSaved= 3 IEnMin= 1 EnMin= -152.816474945117     IErMin= 1 ErrMin= 3.23D-05
 ErrMax= 4.79D-05 EMaxC= 1.00D-01 BMatC= 6.27D-08 BMatP= 3.21D-08
 IDIUse=1 WtCom= 1.00D+00 WtEn= 0.00D+00
 Coeff-Com:  0.191D+00 0.239D+00 0.570D+00
 Coeff:      0.191D+00 0.239D+00 0.570D+00
 Gap=     0.041 Goal=   None    Shift=    0.000
 RMSDP=6.06D-06 MaxDP=6.54D-05 DE=-3.87D-07 OVMax= 1.72D-04

 Cycle  21  Pass 1  IDiag  1:
 E= -152.816474863510     Delta-E=        0.000000040073 Rises=F Damp=F
 DIIS: error= 5.47D-05 at cycle   4 NSaved=   4.
 NSaved= 4 IEnMin= 1 EnMin= -152.816474945117     IErMin= 1 ErrMin= 3.23D-05
 ErrMax= 5.47D-05 EMaxC= 1.00D-01 BMatC= 7.20D-08 BMatP= 3.21D-08
 IDIUse=1 WtCom= 1.00D+00 WtEn= 0.00D+00
 Coeff-Com: -0.100D-01 0.219D+00 0.568D+00 0.223D+00
 Coeff:     -0.100D-01 0.219D+00 0.568D+00 0.223D+00
 Gap=     0.041 Goal=   None    Shift=    0.000
 RMSDP=5.07D-06 MaxDP=5.86D-05 DE= 4.01D-08 OVMax= 1.75D-04

 Cycle  22  Pass 1  IDiag  1:
 E= -152.816474969456     Delta-E=       -0.000000105946 Rises=F Damp=F
 DIIS: error= 8.12D-06 at cycle   5 NSaved=   5.
 NSaved= 5 IEnMin= 5 EnMin= -152.816474969456     IErMin= 5 ErrMin= 8.12D-06
 ErrMax= 8.12D-06 EMaxC= 1.00D-01 BMatC= 2.59D-09 BMatP= 3.21D-08
 IDIUse=1 WtCom= 1.00D+00 WtEn= 0.00D+00
 Coeff-Com: -0.159D-01 0.160D+00 0.447D+00 0.176D+00 0.232D+00
 Coeff:     -0.159D-01 0.160D+00 0.447D+00 0.176D+00 0.232D+00
 Gap=     0.041 Goal=   None    Shift=    0.000
 RMSDP=1.61D-06 MaxDP=1.44D-05 DE=-1.06D-07 OVMax= 7.15D-05

 Cycle  23  Pass 1  IDiag  1:
 E= -152.816474974939     Delta-E=       -0.000000005483 Rises=F Damp=F
 DIIS: error= 2.02D-06 at cycle   6 NSaved=   6.
 NSaved= 6 IEnMin= 6 EnMin= -152.816474974939     IErMin= 6 ErrMin= 2.02D-06
 ErrMax= 2.02D-06 EMaxC= 1.00D-01 BMatC= 1.62D-10 BMatP= 2.59D-09
 IDIUse=1 WtCom= 1.00D+00 WtEn= 0.00D+00
 Coeff-Com: -0.183D-02-0.113D-01 0.115D-01-0.108D-01 0.180D+00 0.832D+00
 Coeff:     -0.183D-02-0.113D-01 0.115D-01-0.108D-01 0.180D+00 0.832D+00
 Gap=     0.041 Goal=   None    Shift=    0.000
 RMSDP=1.15D-06 MaxDP=1.62D-05 DE=-5.48D-09 OVMax= 5.43D-05

 Cycle  24  Pass 1  IDiag  1:
 E= -152.816474974961     Delta-E=       -0.000000000022 Rises=F Damp=F
 DIIS: error= 4.42D-06 at cycle   7 NSaved=   7.
 NSaved= 7 IEnMin= 7 EnMin= -152.816474974961     IErMin= 6 ErrMin= 2.02D-06
 ErrMax= 4.42D-06 EMaxC= 1.00D-01 BMatC= 6.46D-10 BMatP= 1.62D-10
 IDIUse=1 WtCom= 1.00D+00 WtEn= 0.00D+00
 Coeff-Com:  0.395D-02-0.359D-01-0.160D+00-0.579D-01 0.930D-01 0.331D+00
 Coeff-Com:  0.826D+00
 Coeff:      0.395D-02-0.359D-01-0.160D+00-0.579D-01 0.930D-01 0.331D+00
 Coeff:      0.826D+00
 Gap=     0.041 Goal=   None    Shift=    0.000
 RMSDP=8.33D-07 MaxDP=1.15D-05 DE=-2.23D-11 OVMax= 3.11D-05

 Cycle  25  Pass 1  IDiag  1:
 E= -152.816474975719     Delta-E=       -0.000000000759 Rises=F Damp=F
 DIIS: error= 3.23D-06 at cycle   8 NSaved=   8.
 NSaved= 8 IEnMin= 8 EnMin= -152.816474975719     IErMin= 6 ErrMin= 2.02D-06
 ErrMax= 3.23D-06 EMaxC= 1.00D-01 BMatC= 3.31D-10 BMatP= 1.62D-10
 IDIUse=1 WtCom= 1.00D+00 WtEn= 0.00D+00
 Coeff-Com:  0.522D-02-0.613D-02-0.177D+00-0.404D-01-0.281D-01-0.442D+00
 Coeff-Com:  0.753D+00 0.935D+00
 Coeff:      0.522D-02-0.613D-02-0.177D+00-0.404D-01-0.281D-01-0.442D+00
 Coeff:      0.753D+00 0.935D+00
 Gap=     0.041 Goal=   None    Shift=    0.000
 RMSDP=1.05D-06 MaxDP=1.38D-05 DE=-7.59D-10 OVMax= 4.41D-05

 Cycle  26  Pass 1  IDiag  1:
 E= -152.816474976362     Delta-E=       -0.000000000642 Rises=F Damp=F
 DIIS: error= 4.33D-07 at cycle   9 NSaved=   9.
 NSaved= 9 IEnMin= 9 EnMin= -152.816474976362     IErMin= 9 ErrMin= 4.33D-07
 ErrMax= 4.33D-07 EMaxC= 1.00D-01 BMatC= 5.18D-12 BMatP= 1.62D-10
 IDIUse=1 WtCom= 1.00D+00 WtEn= 0.00D+00
 Coeff-Com:  0.112D-02 0.129D-02-0.293D-01-0.380D-02-0.407D-01-0.150D+00
 Coeff-Com:  0.716D-01 0.303D+00 0.847D+00
 Coeff:      0.112D-02 0.129D-02-0.293D-01-0.380D-02-0.407D-01-0.150D+00
 Coeff:      0.716D-01 0.303D+00 0.847D+00
 Gap=     0.041 Goal=   None    Shift=    0.000
 RMSDP=3.91D-07 MaxDP=4.78D-06 DE=-6.42D-10 OVMax= 1.93D-05

 Cycle  27  Pass 1  IDiag  1:
 E= -152.816474976394     Delta-E=       -0.000000000032 Rises=F Damp=F
 DIIS: error= 3.74D-07 at cycle  10 NSaved=  10.
 NSaved=10 IEnMin=10 EnMin= -152.816474976394     IErMin=10 ErrMin= 3.74D-07
 ErrMax= 3.74D-07 EMaxC= 1.00D-01 BMatC= 3.27D-12 BMatP= 5.18D-12
 IDIUse=1 WtCom= 1.00D+00 WtEn= 0.00D+00
 Coeff-Com: -0.530D-03 0.411D-02 0.255D-01 0.802D-02-0.210D-01-0.173D-01
 Coeff-Com: -0.146D+00-0.615D-02 0.665D+00 0.489D+00
 Coeff:     -0.530D-03 0.411D-02 0.255D-01 0.802D-02-0.210D-01-0.173D-01
 Coeff:     -0.146D+00-0.615D-02 0.665D+00 0.489D+00
 Gap=     0.041 Goal=   None    Shift=    0.000
 RMSDP=1.34D-07 MaxDP=1.25D-06 DE=-3.19D-11 OVMax= 6.26D-06

 Cycle  28  Pass 1  IDiag  1:
 E= -152.816474976409     Delta-E=       -0.000000000015 Rises=F Damp=F
 DIIS: error= 1.10D-07 at cycle  11 NSaved=  11.
 NSaved=11 IEnMin=11 EnMin= -152.816474976409     IErMin=11 ErrMin= 1.10D-07
 ErrMax= 1.10D-07 EMaxC= 1.00D-01 BMatC= 3.74D-13 BMatP= 3.27D-12
 IDIUse=1 WtCom= 1.00D+00 WtEn= 0.00D+00
 Coeff-Com: -0.621D-03-0.545D-03 0.158D-01 0.235D-02 0.260D-01 0.530D-01
 Coeff-Com: -0.473D-01-0.142D+00-0.240D+00-0.667D-01 0.140D+01
 Coeff:     -0.621D-03-0.545D-03 0.158D-01 0.235D-02 0.260D-01 0.530D-01
 Coeff:     -0.473D-01-0.142D+00-0.240D+00-0.667D-01 0.140D+01
 Gap=     0.041 Goal=   None    Shift=    0.000
 RMSDP=1.17D-07 MaxDP=1.41D-06 DE=-1.48D-11 OVMax= 4.26D-06

 Cycle  29  Pass 1  IDiag  1:
 E= -152.816474976411     Delta-E=       -0.000000000003 Rises=F Damp=F
 DIIS: error= 3.00D-08 at cycle  12 NSaved=  12.
 NSaved=12 IEnMin=12 EnMin= -152.816474976411     IErMin=12 ErrMin= 3.00D-08
 ErrMax= 3.00D-08 EMaxC= 1.00D-01 BMatC= 3.25D-14 BMatP= 3.74D-13
 IDIUse=1 WtCom= 1.00D+00 WtEn= 0.00D+00
 Coeff-Com: -0.488D-04-0.284D-03 0.343D-03-0.357D-03 0.517D-02 0.434D-02
 Coeff-Com:  0.472D-03-0.153D-01-0.491D-01-0.276D-01 0.113D+00 0.969D+00
 Coeff:     -0.488D-04-0.284D-03 0.343D-03-0.357D-03 0.517D-02 0.434D-02
 Coeff:      0.472D-03-0.153D-01-0.491D-01-0.276D-01 0.113D+00 0.969D+00
 Gap=     0.041 Goal=   None    Shift=    0.000
 RMSDP=1.47D-08 MaxDP=1.54D-07 DE=-2.50D-12 OVMax= 5.60D-07

 Cycle  30  Pass 1  IDiag  1:
 E= -152.816474976412     Delta-E=        0.000000000000 Rises=F Damp=F
 DIIS: error= 1.11D-08 at cycle  13 NSaved=  13.
 NSaved=13 IEnMin=13 EnMin= -152.816474976412     IErMin=13 ErrMin= 1.11D-08
 ErrMax= 1.11D-08 EMaxC= 1.00D-01 BMatC= 3.49D-15 BMatP= 3.25D-14
 IDIUse=1 WtCom= 1.00D+00 WtEn= 0.00D+00
 Coeff-Com:  0.611D-04 0.428D-04-0.141D-02-0.248D-03-0.285D-02-0.599D-02
 Coeff-Com:  0.373D-02 0.165D-01 0.345D-01 0.168D-01-0.185D+00-0.555D-01
 Coeff-Com:  0.118D+01
 Coeff:      0.611D-04 0.428D-04-0.141D-02-0.248D-03-0.285D-02-0.599D-02
 Coeff:      0.373D-02 0.165D-01 0.345D-01 0.168D-01-0.185D+00-0.555D-01
 Coeff:      0.118D+01
 Gap=     0.041 Goal=   None    Shift=    0.000
 RMSDP=3.73D-09 MaxDP=5.37D-08 DE=-4.26D-13 OVMax= 1.54D-07

 SCF Done:  E(RB3LYP) =  -152.816474976     A.U. after   30 cycles
             Convg  =    0.3734D-08             -V/T =  2.0176
 KE= 1.501669537059D+02 PE=-4.301160123844D+02 EE= 9.038333836514D+01
 Leave Link  502 at Thu Aug 08 20:06:01 2019, MaxMem=  131072000 cpu:       8.0
 (Enter C:\G09W\l801.exe)
 Range of M.O.s used for correlation:     1    53
 NBasis=    53 NAE=    12 NBE=    12 NFC=     0 NFV=     0
 NROrb=     53 NOA=    12 NOB=    12 NVA=    41 NVB=    41

 **** Warning!!: The smallest alpha delta epsilon is  0.40579644D-01

 Leave Link  801 at Thu Aug 08 20:06:01 2019, MaxMem=  131072000 cpu:       0.0
 (Enter C:\G09W\l1101.exe)
 Using compressed storage, NAtomX=     7.
 Will process   8 centers per pass.
 Leave Link 1101 at Thu Aug 08 20:06:01 2019, MaxMem=  131072000 cpu:       0.0
 (Enter C:\G09W\l1102.exe)
 Symmetrizing basis deriv contribution to polar:
 IMax=3 JMax=2 DiffMx= 0.00D+00
 Leave Link 1102 at Thu Aug 08 20:06:01 2019, MaxMem=  131072000 cpu:       0.0
 (Enter C:\G09W\l1110.exe)
 Forming Gx(P) for the SCF density, NAtomX=     7.
 Integral derivatives from FoFDir/FoFCou, PRISM(SPDF).
 Do as many integral derivatives as possible in FoFDir.
 G2DrvN: MDV=     131071904.
 G2DrvN: will do     8 centers at a time, making    1 passes doing MaxLOS=2.
 Calling FoFCou, ICntrl=  3107 FMM=F I1Cent=   0 AccDes= 0.00D+00.
 FoFCou: FMM=F IPFlag=           0 FMFlag=      100000 FMFlg1=           0
         NFxFlg=           0 DoJE=F BraDBF=F KetDBF=F FulRan=T
         Omega=  0.000000  0.000000  1.000000  0.000000  0.000000 ICntrl=    3107 IOpCl=  0
         NMat0=    1 NMatS0=    1 NMatT0=    0 NMatD0=    1 NMtDS0=    0 NMtDT0=    0
         I1Cent=           0 NGrid=           0.
 Petite list used in FoFCou.
 FoFDir/FoFCou used for L=0 through L=2.
 End of G2Drv Frequency-dependent properties file   721 does not exist.
 End of G2Drv Frequency-dependent properties file   722 does not exist.
 Leave Link 1110 at Thu Aug 08 20:06:04 2019, MaxMem=  131072000 cpu:       3.0
 (Enter C:\G09W\l1002.exe)
 Minotr:  Closed shell wavefunction.
          IDoAtm=1111111
          Direct CPHF calculation.
          Differentiating once with respect to electric field.
                with respect to dipole field.
          Differentiating once with respect to nuclear coordinates.
          Using symmetry in CPHF.
          Requested convergence is 1.0D-08 RMS, and 1.0D-07 maximum.
          Secondary convergence is 1.0D-12 RMS, and 1.0D-12 maximum.
          NewPWx=T KeepS1=F KeepF1=F KeepIn=T MapXYZ=F SortEE=F KeepMc=T.
          MDV=     131071946 using IRadAn=       2.
 Generate precomputed XC quadrature information.
          Keep R1 ints in memory in canonical form, NReq=1846024.
 Symmetry not used in FoFDir.
 MinBra= 0 MaxBra= 2 Meth= 1.
 IRaf=       0 NMat=   1 IRICut=       1 DoRegI=T DoRafI=F ISym2E= 0 JSym2E=0.
          Solving linear equations simultaneously, MaxMat=       0.
          There are    21 degrees of freedom in the 1st order CPHF.  IDoFFX=4.
     21 vectors produced by pass  0 Test12= 2.34D-15 4.76D-09 XBig12= 4.41D+03 5.63D+01.
 AX will form    21 AO Fock derivatives at one time.
     21 vectors produced by pass  1 Test12= 2.34D-15 4.76D-09 XBig12= 9.53D+03 3.99D+01.
     21 vectors produced by pass  2 Test12= 2.34D-15 4.76D-09 XBig12= 1.52D+02 4.34D+00.
     21 vectors produced by pass  3 Test12= 2.34D-15 4.76D-09 XBig12= 3.04D+00 4.87D-01.
     20 vectors produced by pass  4 Test12= 2.34D-15 4.76D-09 XBig12= 3.44D-03 2.10D-02.
     11 vectors produced by pass  5 Test12= 2.34D-15 4.76D-09 XBig12= 2.11D-06 4.66D-04.
      3 vectors produced by pass  6 Test12= 2.34D-15 4.76D-09 XBig12= 1.09D-09 1.04D-05.
      3 vectors produced by pass  7 Test12= 2.34D-15 4.76D-09 XBig12= 6.34D-13 2.89D-07.
      1 vectors produced by pass  8 Test12= 2.34D-15 4.76D-09 XBig12= 4.19D-16 6.46D-09.
 Inverted reduced A of dimension   122 with in-core refinement.
 FullF1:  Do perturbations    1 to    21.
 Isotropic polarizability for W=    0.000000      129.45 Bohr**3.
 End of Minotr Frequency-dependent properties file   721 does not exist.
 End of Minotr Frequency-dependent properties file   722 does not exist.
 Leave Link 1002 at Thu Aug 08 20:06:09 2019, MaxMem=  131072000 cpu:       5.0
 (Enter C:\G09W\l601.exe)
 Copying SCF densities to generalized density rwf, IOpCl= 0 IROHF=0.

 **********************************************************************

            Population analysis using the SCF density.

 **********************************************************************

 Orbital symmetries:
       Occupied  (A') (A') (A') (A') (A') (A') (A') (A") (A') (A')
                 (A") (A')
       Virtual   (A') (A") (A') (A') (A') (A") (A') (A') (A") (A')
                 (A') (A") (A') (A') (A') (A') (A') (A") (A') (A')
                 (A") (A') (A') (A") (A") (A') (A') (A') (A") (A')
                 (A") (A') (A') (A") (A') (A") (A') (A') (A') (A')
                 (A')
 The electronic state is 1-A'.
 Alpha  occ. eigenvalues --  -19.19655 -10.42575 -10.40336  -0.85416  -0.60444
 Alpha  occ. eigenvalues --   -0.57908  -0.32021  -0.31254  -0.31228  -0.29353
 Alpha  occ. eigenvalues --   -0.26952  -0.26047
 Alpha virt. eigenvalues --   -0.21989  -0.18009  -0.16075  -0.11860  -0.11373
 Alpha virt. eigenvalues --   -0.10576  -0.10069   0.47577   0.47856   0.52039
 Alpha virt. eigenvalues --    0.58743   0.58951   0.62754   0.63475   0.74187
 Alpha virt. eigenvalues --    0.77583   0.79623   0.79951   0.82545   0.85419
 Alpha virt. eigenvalues --    0.92838   0.95548   1.06222   1.61777   1.62191
 Alpha virt. eigenvalues --    1.62767   1.63860   1.63912   1.63943   1.64828
 Alpha virt. eigenvalues --    1.66166   1.66173   1.69148   1.83469   1.83926
 Alpha virt. eigenvalues --    1.84911   1.85050   2.01963   3.34675   3.75977
 Alpha virt. eigenvalues --    3.84904
          Condensed to atoms (all electrons):
              1          2          3          4          5          6
     1  C    5.442284   0.078081  -0.000542  -0.001551   0.169360   0.168704
     2  C    0.078081   5.478450   0.142475   0.155928  -0.001311  -0.001379
     3  O   -0.000542   0.142475   8.127730  -0.000935   0.000057   0.000001
     4  H   -0.001551   0.155928  -0.000935   0.804080   0.000003   0.000056
     5  H    0.169360  -0.001311   0.000057   0.000003   0.790908  -0.003694
     6  H    0.168704  -0.001379   0.000001   0.000056  -0.003694   0.813304
     7  H    0.168704  -0.001379   0.000001   0.000056  -0.003694  -0.003971
              7
     1  C    0.168704
     2  C   -0.001379
     3  O    0.000001
     4  H    0.000056
     5  H   -0.003694
     6  H   -0.003971
     7  H    0.813304
 Mulliken atomic charges:
              1
     1  C   -0.025040
     2  C    0.149134
     3  O   -0.268786
     4  H    0.042363
     5  H    0.048370
     6  H    0.026979
     7  H    0.026979
 Sum of Mulliken atomic charges =   0.00000
 Mulliken charges with hydrogens summed into heavy atoms:
              1
     1  C    0.077289
     2  C    0.191497
     3  O   -0.268786
 Sum of Mulliken charges with hydrogens summed into heavy atoms =   0.00000
 APT atomic charges:
              1
     1  C    0.388291
     2  C    0.111096
     3  O   -0.156161
     4  H    0.002890
     5  H   -0.098122
     6  H   -0.123997
     7  H   -0.123997
 Sum of APT charges=   0.00000
 APT Atomic charges with hydrogens summed into heavy atoms:
              1
     1  C    0.042175
     2  C    0.113986
     3  O   -0.156161
     4  H    0.000000
     5  H    0.000000
     6  H    0.000000
     7  H    0.000000
 Sum of APT charges=   0.00000
 Electronic spatial extent (au):  <R**2>=            495.4257
 Charge=              0.0000 electrons
 Dipole moment (field-independent basis, Debye):
    X=             -3.8886    Y=             -0.5256    Z=              0.0000  Tot=              3.9240
 Quadrupole moment (field-independent basis, Debye-Ang):
   XX=            -24.5559   YY=            -16.9969   ZZ=            -20.5278
   XY=             -1.2351   XZ=              0.0000   YZ=              0.0000
 Traceless Quadrupole moment (field-independent basis, Debye-Ang):
   XX=             -3.8624   YY=              3.6966   ZZ=              0.1658
   XY=             -1.2351   XZ=              0.0000   YZ=              0.0000
 Octapole moment (field-independent basis, Debye-Ang**2):
  XXX=              3.2374  YYY=              3.6700  ZZZ=              0.0000  XYY=              0.1855
  XXY=             -4.1672  XXZ=              0.0000  XZZ=              1.4107  YZZ=              1.3040
  YYZ=              0.0000  XYZ=              0.0000
 Hexadecapole moment (field-independent basis, Debye-Ang**3):
 XXXX=           -415.4994 YYYY=           -211.5894 ZZZZ=            -53.6449 XXXY=            -85.0106
 XXXZ=              0.0000 YYYX=           -103.8822 YYYZ=              0.0000 ZZZX=              0.0000
 ZZZY=              0.0000 XXYY=           -116.7550 XXZZ=            -66.6772 YYZZ=            -55.0948
 XXYZ=              0.0000 YYXZ=              0.0000 ZZXY=            -25.7500
 N-N= 3.674924533694D+01 E-N=-4.301160123999D+02  KE= 1.501669537059D+02
 Symmetry A'   KE= 1.444511559184D+02
 Symmetry A"   KE= 5.715797787482D+00
  Exact polarizability: 159.036  48.209 168.053   0.000   0.000  61.265
 Approx polarizability:1013.974 340.052 583.770   0.000   0.000 158.371
 No NMR shielding tensors so no spin-rotation constants.
 Leave Link  601 at Thu Aug 08 20:06:09 2019, MaxMem=  131072000 cpu:       0.0
 (Enter C:\G09W\l701.exe)
 Compute integral second derivatives.
 ... and contract with generalized density number  0.
 Entering OneElI...
 Calculate overlap and kinetic energy integrals
    NBasis =  53  MinDer = 2  MaxDer = 2
 Requested accuracy = 0.1000D-12
 PrsmSu:  NPrtUS=   1 ThrOK=F IAlg=1 NPAlg=1 LenDen=           0.
 Prism:   IPart=     0 DynPar=F LinDyn=F Incr=           2.
 PRISM was handed   131047976 working-precision words and   209 shell-pairs
 IPart=  0 NShTot=         209 NBatch=          28 AvBLen=         7.5
 PrSmSu:  NxtVal=              3.
 Entering OneElI...
 Calculate potential energy integrals
    NBasis =  53  MinDer = 2  MaxDer = 2
 Requested accuracy = 0.1000D-12
 PrsmSu:  NPrtUS=   1 ThrOK=F IAlg=1 NPAlg=1 LenDen=           0.
 Prism:   IPart=     0 DynPar=F LinDyn=F Incr=          13.
 PRISM was handed   131051853 working-precision words and   190 shell-pairs
 IPart=  0 NShTot=        1330 NBatch=         190 AvBLen=         7.0
 PrSmSu:  NxtVal=             14.
 Polarizability after L701:
                1             2             3 
      1  0.159036D+03
      2  0.482087D+02  0.168053D+03
      3  0.000000D+00  0.000000D+00  0.612652D+02
 Dipole Derivatives after L701:
                 1             2             3             4             5 
      1   0.372183D+00  0.180106D+00  0.000000D+00 -0.534848D-01  0.124205D+00
      2   0.233002D+00  0.471517D+00  0.000000D+00 -0.750040D-01  0.329839D+00
      3   0.000000D+00  0.000000D+00  0.321173D+00  0.000000D+00  0.000000D+00
                 6             7             8             9            10 
      1   0.000000D+00  0.743681D-02 -0.136770D-01  0.000000D+00  0.456370D-01
      2   0.000000D+00  0.513768D-01 -0.236152D+00  0.000000D+00  0.892744D-01
      3   0.569326D-01  0.000000D+00  0.000000D+00 -0.239767D+00  0.000000D+00
                11            12            13            14            15 
      1  -0.212321D-01  0.000000D+00 -0.512288D-01 -0.955964D-01  0.000000D+00
      2  -0.987102D-01  0.000000D+00 -0.815658D-01 -0.213282D+00  0.000000D+00
      3   0.000000D+00  0.617435D-01  0.000000D+00  0.000000D+00 -0.298547D-01
                16            17            18            19            20 
      1  -0.160272D+00 -0.869029D-01  0.604655D-01 -0.160272D+00 -0.869029D-01
      2  -0.108542D+00 -0.126606D+00  0.435164D-01 -0.108542D+00 -0.126606D+00
      3   0.493912D-01  0.118890D-01 -0.851141D-01 -0.493912D-01 -0.118890D-01
                21 
      1  -0.604655D-01
      2  -0.435164D-01
      3  -0.851141D-01
 Hessian after L701:
                1             2             3             4             5 
      1  0.241233D+00
      2 -0.221781D+00  0.274039D+00
      3  0.000000D+00  0.000000D+00  0.607463D+00
      4  0.209942D-01  0.625005D+00  0.000000D+00 -0.194848D+01
      5  0.631943D+00  0.357095D+00  0.000000D+00  0.204912D-01  0.533462D+00
      6  0.000000D+00  0.000000D+00 -0.441507D+00  0.000000D+00  0.000000D+00
      7  0.120545D+00  0.102479D+00  0.000000D+00  0.217126D+01 -0.301857D+00
      8  0.915501D-01 -0.387175D-01  0.000000D+00 -0.293202D+00 -0.122490D+01
      9  0.000000D+00  0.000000D+00 -0.835173D-01  0.000000D+00  0.000000D+00
     10 -0.919976D-02 -0.436056D-02  0.000000D+00 -0.253635D+00 -0.380830D+00
     11  0.993167D-02  0.216677D-01  0.000000D+00 -0.379891D+00  0.314499D+00
     12  0.000000D+00  0.000000D+00 -0.112557D-01  0.000000D+00  0.000000D+00
     13 -0.178913D+00 -0.440782D+00  0.000000D+00 -0.125653D-01 -0.757249D-02
     14 -0.471661D+00  0.280589D+00  0.000000D+00  0.124090D-01  0.292072D-01
     15  0.000000D+00  0.000000D+00 -0.458192D+00  0.000000D+00  0.000000D+00
     16 -0.973293D-01 -0.302796D-01 -0.481781D+00  0.112163D-01  0.189128D-01
     17 -0.199914D-01 -0.447336D+00  0.282267D-01  0.759409D-02 -0.468203D-02
     18 -0.469375D+00  0.407289D-01  0.193505D+00 -0.208164D-01 -0.162249D-01
     19 -0.973293D-01 -0.302796D-01  0.481781D+00  0.112163D-01  0.189128D-01
     20 -0.199914D-01 -0.447336D+00 -0.282267D-01  0.759409D-02 -0.468203D-02
     21  0.469375D+00 -0.407289D-01  0.193505D+00  0.208164D-01  0.162249D-01
                6             7             8             9            10 
      6  0.222719D+01
      7  0.000000D+00 -0.236922D+01
      8  0.000000D+00  0.206931D+00  0.123915D+01
      9 -0.134562D+01  0.000000D+00  0.000000D+00  0.146527D+01
     10  0.000000D+00  0.402204D-01 -0.306591D-01  0.000000D+00  0.225595D+00
     11  0.000000D+00 -0.558902D-01  0.115895D-01  0.000000D+00  0.415904D+00
     12 -0.425520D+00  0.000000D+00  0.000000D+00 -0.216834D-01  0.000000D+00
     13  0.000000D+00 -0.549706D-02  0.883673D-02  0.000000D+00 -0.416131D-03
     14  0.000000D+00  0.352630D-01  0.214518D-01  0.000000D+00 -0.206806D-02
     15 -0.109788D-01  0.000000D+00  0.000000D+00 -0.104639D-01  0.000000D+00
     16 -0.100102D-01  0.213487D-01  0.827164D-02 -0.635466D-02 -0.128208D-02
     17 -0.300843D-02  0.653725D-02 -0.428785D-02 -0.151016D-02  0.100687D-02
     18 -0.178270D-02 -0.188445D-01 -0.575796D-02 -0.199622D-02  0.142920D-03
     19  0.100102D-01  0.213487D-01  0.827164D-02  0.635466D-02 -0.128208D-02
     20  0.300843D-02  0.653725D-02 -0.428785D-02  0.151016D-02  0.100687D-02
     21 -0.178270D-02  0.188445D-01  0.575796D-02 -0.199622D-02 -0.142920D-03
               11            12            13            14            15 
     11 -0.362456D+00
     12  0.000000D+00  0.459760D+00
     13 -0.309384D-02  0.000000D+00  0.205134D+00
     14  0.778286D-02  0.000000D+00  0.425485D+00 -0.334435D+00
     15  0.000000D+00 -0.619036D-03  0.000000D+00  0.000000D+00  0.482607D+00
     16  0.651964D-02 -0.937113D-03 -0.387096D-02  0.285747D-03  0.733140D-02
     17  0.345872D-02 -0.126141D-02  0.856343D-02 -0.229828D-02 -0.847599D-02
     18 -0.698749D-02 -0.341064D-03  0.170746D-02  0.212267D-02 -0.117661D-02
     19  0.651964D-02  0.937113D-03 -0.387096D-02  0.285747D-03 -0.733140D-02
     20  0.345872D-02  0.126141D-02  0.856343D-02 -0.229828D-02  0.847599D-02
     21  0.698749D-02 -0.341064D-03 -0.170746D-02 -0.212267D-02 -0.117661D-02
               16            17            18            19            20 
     16  0.688948D-01
     17 -0.348615D-02  0.452940D+00
     18  0.499469D+00 -0.139259D-01 -0.176546D+00
     19  0.102262D-02 -0.224120D-03  0.771739D-02  0.688948D-01
     20 -0.224120D-03  0.220597D-02  0.447605D-04 -0.348615D-02  0.452940D+00
     21 -0.771739D-02 -0.447605D-04 -0.116624D-01 -0.499469D+00  0.139259D-01
               21 
     21 -0.176546D+00
 Leave Link  701 at Thu Aug 08 20:06:10 2019, MaxMem=  131072000 cpu:       1.0
 (Enter C:\G09W\l702.exe)
 L702 exits ... SP integral derivatives will be done elsewhere.
 Leave Link  702 at Thu Aug 08 20:06:10 2019, MaxMem=  131072000 cpu:       0.0
 (Enter C:\G09W\l703.exe)
 Compute integral second derivatives, UseDBF=F ICtDFT=           0.
 Integral derivatives from FoFDir, PRISM(SPDF).
 ICntrl=    100127.
 Calling FoFJK, ICntrl=    100127 FMM=F ISym2X=1 I1Cent= 0 IOpClX= 0 NMat=1 NMatS=1 NMatT=0.
 FoFJK:  IHMeth= 1 ICntrl=100127 DoSepK=F KAlg= 1 I1Cent= 0 FoldK=F
 FoFCou: FMM=F IPFlag=           0 FMFlag=      100000 FMFlg1=         800
         NFxFlg=           0 DoJE=F BraDBF=F KetDBF=F FulRan=T
         Omega=  0.000000  0.000000  1.000000  0.000000  0.000000 ICntrl=  100127 IOpCl=  0
         NMat0=    1 NMatS0=    1 NMatT0=    0 NMatD0=    1 NMtDS0=    0 NMtDT0=    0
         I1Cent=           0 NGrid=           0.
 Petite list used in FoFCou.
 FoFCou:  KetSym=F NOpSet=  2 NOpAb=2 NOp=  2.
 FoFCou:  CnvScl= 1.00D+00 Thresh= 1.00D-10
 PrismS was handed   131050202 working-precision words and   198 shell-pairs
 FoFCou: LinMIO=F DoNuc=F BraDBF=F KetDBF=F HaveP=T PDBF=F HaveZ=T HaveW=F
         NIJTC =       6 NIJTAt=       0 NIJTCD=       0 NIJTT =       6
         IJTBeg=       1 IJTEnd=       6 KLTBeg=       1 KLTEnd=       6
         IPTBeg=       1 IPTEnd=       6 IPTBCv=       1 IPTECv=       6
         IZTBeg=       1 IZTEnd=       6 IZTBCv=       1 IZTECv=       6
         IWTBeg=       7 IWTEnd=       6 IWTBCv=       7 IWTECv=       6
         INTBeg=       1 INTEnd=       0 IFTBCv=       1 IFTECv=       6
 NCel replicated for PrismC:     1
 CoulSu:  IncDef=  1024 NBBP=          19701 NTPThr=   100 NPartT=    1 Incr=         197 LDynOK=F.
 CoulSu:  NPrtUS=   1 ThrOK=F IAlg=1 NPAlg=1 LenDen=           0.
 Enter PrismC: JobTyp=22 DoJE=F Cont=F.
 PrismC:  IPart=     0 DynPar=F LinDyn=F Incr=         197 UseFst=F UseS4=T.
 PrismC was handed   131049977 working-precision words and   198 shell-pairs
 IPart=  0 NShTot=        9956 NShNF=        9956 NShFF=           0 NBatch=         679 AvBLen=        14.7
 CoulSu:  NxtVal=            198.
 ReadGW:  IGet=0 IStart=           1 Next=        1986 LGW=        1985.
 Remaining memory in FofDFT      124.99 Mw
 Pruned (  75, 302) grid will be used in CalDFT.
 CkSvGd:  ISavGI=        -1 IRadAn=       4 IRASav=       4 ISavGd=        -1.
 CalDSu:  NPrtUS=   1 ThrOK=F IAlg=1 NPAlg=1 DoDPD=F LenP=    1431 LenD1P=           0.
 IPart=  0 IRanGd=          0 ScrnBf=T ScrnGd=T RCrit=4.00D+00 DoMicB=T.
 CutRad = 1000.00    CtRdIn =    0.00    XCrit =  15.00   ICut = 0
 Pruned (  75, 302) grid will be used in CalDFT.
 Pruned (  75, 302) grid will be used in CalDFT.
 Pruned (  75, 302) grid will be used in CalDFT.
 Pruned (  75, 302) grid will be used in CalDFT.
 Pruned (  75, 302) grid will be used in CalDFT.
 Pruned (  75, 302) grid will be used in CalDFT.
 IPart=  0        28132 of        29545 points in      97 batches and      235 microbatches, Max-NSigAt=       7 Max-NSgAt2=       7
 Polarizability after L703:
                1             2             3 
      1  0.159036D+03
      2  0.482087D+02  0.168053D+03
      3  0.000000D+00  0.000000D+00  0.612652D+02
 Dipole Derivatives after L703:
                 1             2             3             4             5 
      1   0.372183D+00  0.180106D+00  0.000000D+00 -0.534848D-01  0.124205D+00
      2   0.233002D+00  0.471517D+00  0.000000D+00 -0.750040D-01  0.329839D+00
      3   0.000000D+00  0.000000D+00  0.321173D+00  0.000000D+00  0.000000D+00
                 6             7             8             9            10 
      1   0.000000D+00  0.743681D-02 -0.136770D-01  0.000000D+00  0.456370D-01
      2   0.000000D+00  0.513768D-01 -0.236152D+00  0.000000D+00  0.892744D-01
      3   0.569326D-01  0.000000D+00  0.000000D+00 -0.239767D+00  0.000000D+00
                11            12            13            14            15 
      1  -0.212321D-01  0.000000D+00 -0.512288D-01 -0.955964D-01  0.000000D+00
      2  -0.987102D-01  0.000000D+00 -0.815658D-01 -0.213282D+00  0.000000D+00
      3   0.000000D+00  0.617435D-01  0.000000D+00  0.000000D+00 -0.298547D-01
                16            17            18            19            20 
      1  -0.160272D+00 -0.869029D-01  0.604655D-01 -0.160272D+00 -0.869029D-01
      2  -0.108542D+00 -0.126606D+00  0.435164D-01 -0.108542D+00 -0.126606D+00
      3   0.493912D-01  0.118890D-01 -0.851141D-01 -0.493912D-01 -0.118890D-01
                21 
      1  -0.604655D-01
      2  -0.435164D-01
      3  -0.851141D-01
 Hessian after L703:
                1             2             3             4             5 
      1  0.190101D-01
      2  0.915486D-02  0.233706D-01
      3  0.000000D+00  0.000000D+00  0.120135D-01
      4  0.706517D-04  0.193505D-01  0.000000D+00 -0.833510D-01
      5  0.115175D-01  0.443977D-02  0.000000D+00  0.183948D-01  0.331770D-02
      6  0.000000D+00  0.000000D+00 -0.567238D-02  0.000000D+00  0.000000D+00
      7 -0.185146D-02 -0.602190D-02  0.000000D+00  0.915366D-01 -0.115977D-01
      8  0.346180D-03  0.244173D-02  0.000000D+00 -0.110989D-01 -0.249321D-01
      9  0.000000D+00  0.000000D+00 -0.368367D-03  0.000000D+00  0.000000D+00
     10  0.246712D-02  0.641298D-03  0.000000D+00 -0.100155D-01 -0.194367D-01
     11  0.224127D-02  0.165598D-02  0.000000D+00 -0.265019D-01  0.146846D-01
     12  0.000000D+00  0.000000D+00 -0.613723D-03  0.000000D+00  0.000000D+00
     13 -0.759273D-02 -0.230073D-01  0.000000D+00  0.707013D-03 -0.121460D-02
     14 -0.202864D-01  0.120942D-01  0.000000D+00  0.220744D-02  0.859674D-03
     15  0.000000D+00  0.000000D+00 -0.237051D-01  0.000000D+00  0.000000D+00
     16 -0.605182D-02 -0.587139D-04 -0.217426D-01  0.526123D-03  0.116830D-02
     17 -0.148673D-02 -0.220012D-01  0.426215D-02 -0.117596D-02  0.815179D-03
     18 -0.242131D-01  0.209900D-02  0.917307D-02 -0.154137D-02 -0.827009D-03
     19 -0.605182D-02 -0.587139D-04  0.217426D-01  0.526123D-03  0.116830D-02
     20 -0.148673D-02 -0.220012D-01 -0.426215D-02 -0.117596D-02  0.815179D-03
     21  0.242131D-01 -0.209900D-02  0.917307D-02  0.154137D-02  0.827009D-03
                6             7             8             9            10 
      6  0.335940D-01
      7  0.000000D+00 -0.900128D-01
      8  0.000000D+00  0.984327D-02  0.210954D-01
      9 -0.176669D-01  0.000000D+00  0.000000D+00  0.191879D-01
     10  0.000000D+00  0.787278D-04  0.562510D-03  0.000000D+00  0.742395D-02
     11  0.000000D+00  0.694889D-02  0.109390D-02  0.000000D+00  0.177532D-01
     12 -0.114862D-01  0.000000D+00  0.000000D+00 -0.101144D-02  0.000000D+00
     13  0.000000D+00  0.587364D-03  0.118038D-03  0.000000D+00 -0.566219D-03
     14  0.000000D+00 -0.521623D-03  0.543728D-03  0.000000D+00  0.231538D-03
     15 -0.130164D-03  0.000000D+00  0.000000D+00  0.888421D-05  0.000000D+00
     16 -0.168972D-03 -0.169219D-03  0.114476D-03  0.119717D-03  0.305962D-03
     17  0.578419D-03  0.674515D-03 -0.121348D-03  0.474649D-04  0.124084D-03
     18  0.680829D-03  0.748957D-03 -0.328763D-03 -0.750255D-04 -0.345072D-03
     19  0.168972D-03 -0.169219D-03  0.114476D-03 -0.119717D-03  0.305962D-03
     20 -0.578419D-03  0.674515D-03 -0.121348D-03 -0.474649D-04  0.124084D-03
     21  0.680829D-03 -0.748957D-03  0.328763D-03 -0.750255D-04  0.345072D-03
               11            12            13            14            15 
     11 -0.176938D-01
     12  0.000000D+00  0.132191D-01
     13 -0.437767D-03  0.000000D+00  0.537692D-02
     14  0.365955D-03  0.000000D+00  0.217019D-01 -0.169982D-01
     15  0.000000D+00  0.902921D-04  0.000000D+00  0.000000D+00  0.197278D-01
     16 -0.185107D-05  0.187437D-03  0.743826D-03 -0.166644D-02  0.152159D-03
     17 -0.532803D-04  0.600965D-04  0.141986D-02  0.156734D-02 -0.228392D-02
     18 -0.616076D-04 -0.990008D-04 -0.730228D-05  0.228008D-03  0.200418D-02
     19 -0.185107D-05 -0.187437D-03  0.743826D-03 -0.166644D-02 -0.152159D-03
     20 -0.532803D-04 -0.600965D-04  0.141986D-02  0.156734D-02  0.228392D-02
     21  0.616076D-04 -0.990008D-04  0.730228D-05 -0.228008D-03  0.200418D-02
               16            17            18            19            20 
     16  0.191717D-02
     17  0.848979D-03  0.188523D-01
     18  0.234051D-01 -0.188692D-02 -0.121812D-01
     19  0.272796D-02 -0.404756D-03  0.195281D-02  0.191717D-02
     20 -0.404756D-03  0.940971D-03  0.777294D-03  0.848979D-03  0.188523D-01
     21 -0.195281D-02 -0.777294D-03  0.497142D-03 -0.234051D-01  0.188692D-02
               21 
     21 -0.121812D-01
 Leave Link  703 at Thu Aug 08 20:06:18 2019, MaxMem=  131072000 cpu:       8.0
 (Enter C:\G09W\l716.exe)
 FrcOut:
 IF    =    38 IFX   =    59 IFXYZ =    80
 IFFX  =   101 IFFFX =   332 IFLen =    21
 IFFLen=   231 IFFFLn=     0 IEDerv=   332
 LEDerv=  1061 IFroze=  1397 ICStrt=  7201
 Dipole        =-1.52989842D+00-2.06801431D-01 1.33226763D-15
 DipoleDeriv   = 3.72183451D-01 2.33001724D-01-4.15407898D-10
                 1.80106246D-01 4.71516586D-01-1.09227225D-10
                -2.94758671D-10 2.42912281D-10 3.21173355D-01
                -5.34848133D-02-7.50039641D-02 2.49791117D-10
                 1.24204985D-01 3.29839019D-01-3.02878217D-10
                 2.72775570D-09 2.04367460D-10 5.69326375D-02
                 7.43681275D-03 5.13767762D-02-6.70075508D-11
                -1.36769705D-02-2.36152161D-01 3.88188324D-10
                -1.23433218D-09 6.13052021D-11-2.39766533D-01
                 4.56369952D-02 8.92744487D-02-5.14707218D-11
                -2.12320783D-02-9.87102317D-02 1.60128849D-10
                -1.63534518D-09-4.38291607D-10 6.17434698D-02
                -5.12287994D-02-8.15657885D-02 8.02531753D-11
                -9.55963748D-02-2.13282087D-01-3.37036057D-10
                -9.66903510D-11-5.69040377D-12-2.98547266D-02
                -1.60271824D-01-1.08541598D-01 4.93912138D-02
                -8.69029032D-02-1.26605563D-01 1.18889831D-02
                 6.04655361D-02 4.35164367D-02-8.51141016D-02
                -1.60271823D-01-1.08541598D-01-4.93912135D-02
                -8.69029029D-02-1.26605563D-01-1.18889830D-02
                -6.04655364D-02-4.35164369D-02-8.51141013D-02
 Polarizability= 1.59036480D+02 4.82086708D+01 1.68053241D+02
                -3.12609902D-08 1.21475843D-08 6.12652481D+01
 VibFq2-Diag1:  N=     21 IV=           5 MDV=   131063009 NE2=     6241095
 Full mass-weighted force constant matrix:
 Low frequencies --- -930.2377 -909.5081 -903.5154 -890.0383 -571.2218 -246.2172
 Low frequencies ---   -0.0011    0.0012    0.0014
 OrtVCM:  Ph=1 IPass= 1 DotMx1= 0.00D+00
 OrtVCM:  IS=    1 I=    1 IndO=    1 Dot= 1.00D+00 DotN= 1.00D+00 ElMax1= 6.03D-01 ElMax1N= 6.03D-01
 OrtVCM:  Ph=2 NNew=    0 IAdd=    2 IPass= 1 DotMx2= 0.00D+00
 OrtVCM:  IS=    1 I=    2 IndO=    2 Dot= 1.00D+00 DotN= 1.00D+00 ElMax1= 6.03D-01 ElMax1N= 6.03D-01
 OrtVCM:  Ph=2 NNew=    0 IAdd=    3 IPass= 1 DotMx2= 0.00D+00
 OrtVCM:  IS=    1 I=    3 IndO=    3 Dot= 1.00D+00 DotN= 1.00D+00 ElMax1= 6.03D-01 ElMax1N= 6.03D-01
 OrtVCM:  Ph=2 NNew=    0 IAdd=    4 IPass= 1 DotMx2= 1.91D-17
 OrtVCM:  IS=    1 I=    4 IndO=    4 Dot= 1.00D+00 DotN= 1.00D+00 ElMax1= 5.14D-01 ElMax1N= 5.14D-01
 OrtVCM:  Ph=2 NNew=    0 IAdd=    5 IPass= 1 DotMx2= 2.52D-16
 OrtVCM:  IS=    1 I=    5 IndO=    5 Dot= 1.00D+00 DotN= 1.00D+00 ElMax1= 6.49D-01 ElMax1N= 6.49D-01
 OrtVCM:  Ph=2 NNew=    0 IAdd=    6 IPass= 1 DotMx2= 2.08D-17
 OrtVCM:  IS=    1 I=    6 IndO=    6 Dot= 1.00D+00 DotN= 1.00D+00 ElMax1= 6.00D-01 ElMax1N= 6.00D-01
 OrtVCM:  Ph=1 IPass= 1 DotMx1= 6.49D-01
 OrtVCM:  Ph=1 IPass= 2 DotMx1= 3.09D-16
 OrtVCM:  IS=    1 I=    1 IndO=    7 Dot= 6.09D-01 DotN= 6.09D-01 ElMax1= 6.09D-01 ElMax1N= 6.09D-01
 OrtVCM:  Ph=2 NNew=    0 IAdd=    2 IPass= 1 DotMx2= 2.11D-01
 OrtVCM:  Ph=2 NNew=    0 IAdd=    2 IPass= 2 DotMx2= 3.82D-17
 OrtVCM:  IS=    1 I=    2 IndO=    8 Dot= 4.53D-01 DotN= 4.53D-01 ElMax1= 4.53D-01 ElMax1N= 4.53D-01
 OrtVCM:  Ph=2 NNew=    0 IAdd=    3 IPass= 1 DotMx2= 2.06D-18
 OrtVCM:  IS=    1 I=    3 IndO=    9 Dot= 3.09D-01 DotN= 3.09D-01 ElMax1= 3.09D-01 ElMax1N= 3.09D-01
 OrtVCM:  Ph=2 NNew=    0 IAdd=    4 IPass= 1 DotMx2= 2.61D-01
 OrtVCM:  Ph=2 NNew=    0 IAdd=    4 IPass= 2 DotMx2= 3.43D-17
 OrtVCM:  IS=    1 I=    4 IndO=   10 Dot= 6.16D-01 DotN= 6.16D-01 ElMax1= 6.16D-01 ElMax1N= 6.16D-01
 OrtVCM:  Ph=2 NNew=    0 IAdd=    5 IPass= 1 DotMx2= 4.41D-01
 OrtVCM:  Ph=2 NNew=    0 IAdd=    5 IPass= 2 DotMx2= 1.53D-16
 OrtVCM:  IS=    1 I=    5 IndO=   11 Dot= 5.30D-01 DotN= 5.30D-01 ElMax1= 5.30D-01 ElMax1N= 5.30D-01
 OrtVCM:  Ph=2 NNew=    0 IAdd=    6 IPass= 1 DotMx2= 2.54D-01
 OrtVCM:  Ph=2 NNew=    0 IAdd=    6 IPass= 2 DotMx2= 1.39D-17
 OrtVCM:  IS=    1 I=    6 IndO=   12 Dot= 4.19D-01 DotN= 4.19D-01 ElMax1= 4.19D-01 ElMax1N= 4.19D-01
 OrtVCM:  Ph=2 NNew=    0 IAdd=    7 IPass= 1 DotMx2= 5.57D-01
 OrtVCM:  Ph=2 NNew=    0 IAdd=    7 IPass= 2 DotMx2= 4.01D-16
 OrtVCM:  IS=    1 I=    7 IndO=   13 Dot= 1.86D-01 DotN= 1.86D-01 ElMax1= 2.31D-01 ElMax1N= 2.31D-01
 OrtVCM:  Ph=2 NNew=    0 IAdd=    8 IPass= 1 DotMx2= 3.61D-01
 OrtVCM:  Ph=2 NNew=    0 IAdd=    8 IPass= 2 DotMx2= 4.07D-17
 OrtVCM:  IS=    1 I=    8 IndO=   14 Dot= 5.89D-02 DotN= 5.89D-02 ElMax1= 1.47D-01 ElMax1N= 1.47D-01
 OrtVCM:  Ph=2 NNew=    0 IAdd=    9 IPass= 1 DotMx2= 2.92D-01
 OrtVCM:  Ph=2 NNew=    0 IAdd=    9 IPass= 2 DotMx2= 1.15D-16
 OrtVCM:  IS=    1 I=    9 IndO=   15 Dot= 3.12D-02 DotN= 3.12D-02 ElMax1= 9.27D-02 ElMax1N= 9.27D-02
 OrtVCM:  Ph=2 NNew=    0 IAdd=   10 IPass= 1 DotMx2= 6.07D-01
 OrtVCM:  Ph=2 NNew=    0 IAdd=   10 IPass= 2 DotMx2= 2.32D-16
 OrtVCM:  IS=    1 I=   10 IndO=   16 Dot= 2.30D-01 DotN= 2.30D-01 ElMax1= 2.30D-01 ElMax1N= 2.30D-01
 OrtVCM:  Ph=2 NNew=    0 IAdd=   11 IPass= 1 DotMx2= 4.16D-01
 OrtVCM:  Ph=2 NNew=    0 IAdd=   11 IPass= 2 DotMx2= 1.42D-16
 OrtVCM:  IS=    1 I=   11 IndO=   17 Dot= 6.10D-01 DotN= 6.10D-01 ElMax1= 6.10D-01 ElMax1N= 6.10D-01
 OrtVCM:  Ph=2 NNew=    0 IAdd=   12 IPass= 1 DotMx2= 5.25D-01
 OrtVCM:  Ph=2 NNew=    0 IAdd=   12 IPass= 2 DotMx2= 2.27D-16
 OrtVCM:  IS=    1 I=   12 IndO=   18 Dot= 1.92D-01 DotN= 1.92D-01 ElMax1= 2.33D-01 ElMax1N= 2.33D-01
 OrtVCM:  Ph=2 NNew=    0 IAdd=   13 IPass= 1 DotMx2= 4.17D-01
 OrtVCM:  Ph=2 NNew=    0 IAdd=   13 IPass= 2 DotMx2= 8.33D-17
 OrtVCM:  IS=    1 I=   13 IndO=   19 Dot= 4.06D-01 DotN= 4.06D-01 ElMax1= 4.06D-01 ElMax1N= 4.06D-01
 OrtVCM:  Ph=2 NNew=    0 IAdd=   14 IPass= 1 DotMx2= 5.35D-01
 OrtVCM:  Ph=2 NNew=    0 IAdd=   14 IPass= 2 DotMx2= 2.59D-16
 OrtVCM:  IS=    1 I=   14 IndO=    0 Dot= 1.15D-31 DotN= 1.15D-31 ElMax1= 1.45D-16 ElMax1N= 1.45D-16
 OrtVCM:  Ph=2 NNew=    0 IAdd=   15 IPass= 1 DotMx2= 4.78D-01
 OrtVCM:  Ph=2 NNew=    0 IAdd=   15 IPass= 2 DotMx2= 1.67D-16
 OrtVCM:  IS=    1 I=   15 IndO=   20 Dot= 3.27D-01 DotN= 3.27D-01 ElMax1= 3.27D-01 ElMax1N= 3.27D-01
 SchOr2:  IPass= 1 Test2A= 1.00D-01 IOff=     0 NDo=    15 NNew=    14
 OrtVCM:  Ph=1 IPass= 1 DotMx1= 4.67D-01
 OrtVCM:  Ph=1 IPass= 2 DotMx1= 2.36D-16
 OrtVCM:  IS=    1 I=    1 IndO=    0 Dot= 3.12D-32 DotN= 3.12D-32 ElMax1= 1.25D-16 ElMax1N= 1.25D-16
 SchOr2:  IPass= 1 Test2A= 1.00D-01 IOff=    15 NDo=     1 NNew=     0
 OrtVCM:  Ph=1 IPass= 1 DotMx1= 5.32D-01
 OrtVCM:  Ph=1 IPass= 2 DotMx1= 1.63D-16
 OrtVCM:  IS=    1 I=    1 IndO=    0 Dot= 1.35D-33 DotN= 1.35D-33 ElMax1= 2.60D-17 ElMax1N= 2.60D-17
 SchOr2:  IPass= 1 Test2A= 1.00D-01 IOff=    16 NDo=     1 NNew=     0
 OrtVCM:  Ph=1 IPass= 1 DotMx1= 4.08D-01
 OrtVCM:  Ph=1 IPass= 2 DotMx1= 1.51D-16
 OrtVCM:  IS=    1 I=    1 IndO=   21 Dot= 5.00D-01 DotN= 5.00D-01 ElMax1= 5.00D-01 ElMax1N= 5.00D-01
 SchOr2:  IPass= 1 Test2A= 1.00D-01 IOff=    17 NDo=     1 NNew=     1
 VibFq2-Diag2:  N=     15 IV=           5 MDV=   131063009 NE2=     8737533
 ******    6 imaginary frequencies (negative Signs) ****** 
 Dipole derivatives wrt mode   1:  5.83477D+00  6.41174D+00  9.88844D-10
 Vibrational polarizability contributions from mode   1       1.0587479       1.2784886       0.0000000
 Vibrational hyperpolarizability contributions from mode   1       0.0000000       0.0000000       0.0000000
 Dipole derivatives wrt mode   2:  3.63136D+00  4.04721D-01 -2.44930D-08
 Vibrational polarizability contributions from mode   2       0.4290013       0.0053288       0.0000000
 Vibrational hyperpolarizability contributions from mode   2       0.0000000       0.0000000       0.0000000
 Dipole derivatives wrt mode   3:  9.26789D-09 -2.28247D-09  4.77930D+00
 Vibrational polarizability contributions from mode   3       0.0000000       0.0000000       0.7529948
 Vibrational hyperpolarizability contributions from mode   3       0.0000000       0.0000000       0.0000000
 Dipole derivatives wrt mode   4: -1.18870D+00 -4.75129D+00 -2.25835D-09
 Vibrational polarizability contributions from mode   4       0.0480028       0.7669064       0.0000000
 Vibrational hyperpolarizability contributions from mode   4       0.0000000       0.0000000       0.0000000
 Dipole derivatives wrt mode   5: -1.21849D-01  3.54210D-01  4.55609D-10
 Vibrational polarizability contributions from mode   5       0.0012252       0.0103536       0.0000000
 Vibrational hyperpolarizability contributions from mode   5       0.0000000       0.0000000       0.0000000
 Dipole derivatives wrt mode   6: -4.97259D-01 -7.42161D-01 -2.29969D-09
 Vibrational polarizability contributions from mode   6       0.1116860       0.2487889       0.0000000
 Vibrational hyperpolarizability contributions from mode   6       0.0000000       0.0000000       0.0000000
 Dipole derivatives wrt mode   7:  8.50013D-01  2.06496D+00 -2.72751D-09
 Vibrational polarizability contributions from mode   7       0.2571144       1.5173900       0.0000000
 Vibrational hyperpolarizability contributions from mode   7       0.0000000       0.0000000       0.0000000
 Dipole derivatives wrt mode   8:  3.25937D-08  6.85642D-09  2.71548D-01
 Vibrational polarizability contributions from mode   8       0.0000000       0.0000000       0.0081706
 Vibrational hyperpolarizability contributions from mode   8       0.0000000       0.0000000       0.0000000
 Dipole derivatives wrt mode   9:  4.21387D-08  9.32046D-09 -1.69552D+00
 Vibrational polarizability contributions from mode   9       0.0000000       0.0000000       0.2064212
 Vibrational hyperpolarizability contributions from mode   9       0.0000000       0.0000000       0.0000000
 Dipole derivatives wrt mode  10: -1.98494D-08 -6.60066D-09 -1.56462D-01
 Vibrational polarizability contributions from mode  10       0.0000000       0.0000000       0.0015407
 Vibrational hyperpolarizability contributions from mode  10       0.0000000       0.0000000       0.0000000
 Dipole derivatives wrt mode  11:  4.60552D-01 -5.32747D-01 -5.44307D-09
 Vibrational polarizability contributions from mode  11       0.0130460       0.0174568       0.0000000
 Vibrational hyperpolarizability contributions from mode  11       0.0000000       0.0000000       0.0000000
 Dipole derivatives wrt mode  12: -4.38993D-01 -3.10942D-02 -2.28369D-09
 Vibrational polarizability contributions from mode  12       0.0106158       0.0000533       0.0000000
 Vibrational hyperpolarizability contributions from mode  12       0.0000000       0.0000000       0.0000000
 Dipole derivatives wrt mode  13: -8.27455D-09  6.01081D-09 -2.05077D+00
 Vibrational polarizability contributions from mode  13       0.0000000       0.0000000       0.1708577
 Vibrational hyperpolarizability contributions from mode  13       0.0000000       0.0000000       0.0000000
 Dipole derivatives wrt mode  14: -1.72582D+00  1.37287D+00  1.03706D-08
 Vibrational polarizability contributions from mode  14       0.1209002       0.0765055       0.0000000
 Vibrational hyperpolarizability contributions from mode  14       0.0000000       0.0000000       0.0000000
 Dipole derivatives wrt mode  15:  6.89393D+00  9.28438D+00 -6.13689D-11
 Vibrational polarizability contributions from mode  15       1.8243509       3.3088686       0.0000000
 Vibrational hyperpolarizability contributions from mode  15       0.0000000       0.0000000       0.0000000
 Diagonal vibrational polarizability:
        3.8746906       7.2301404       1.1399849
 NorSel:  MapVib=      1      2      3      4      5      6      7      8      9     10
 NorSel:  MapVib=     11     12     13     14     15
 Harmonic frequencies (cm**-1), IR intensities (KM/Mole), Raman scattering
 activities (A**4/AMU), depolarization ratios for plane and unpolarized
 incident light, reduced masses (AMU), force constants (mDyne/A),
 and normal coordinates:
                           1         2         3         4         5
                          A'        A'        A"        A'        A'
       Frequencies ---  -930.2372 -909.5073 -903.5144 -890.0349 -571.0612
    Reduced masses ---     1.0264    1.0846    1.0817    1.1633    5.4654
   Force constants ---     0.5233    0.5286    0.5203    0.5429    1.0501
    IR Intensities ---    75.1548   13.3506   22.8417   23.9878    0.1403
 Coord Atom Element:
   1     1     6          0.01479   0.06940   0.00000   0.00962  -0.03368
   2     1     6          0.03641  -0.04532   0.00000  -0.01530  -0.06479
   3     1     6          0.00000   0.00000   0.08194   0.00000   0.00000
   1     2     6          0.01000  -0.00609   0.00000   0.08727   0.46312
   2     2     6          0.00421   0.00782   0.00000  -0.06466   0.05407
   3     2     6          0.00000   0.00000   0.00328   0.00000   0.00000
   1     3     8         -0.00470   0.00297   0.00000  -0.03847  -0.36403
   2     3     8          0.00123   0.00045   0.00000  -0.00148   0.03930
   3     3     8          0.00000   0.00000   0.00007   0.00000   0.00000
   1     4     1          0.01320   0.05954   0.00000  -0.42850   0.67413
   2     4     1          0.02229  -0.12657   0.00000   0.88512  -0.42213
   3     4     1          0.00000   0.00000  -0.00453   0.00000   0.00000
   1     5     1          0.37062  -0.35293   0.00000  -0.06153  -0.05307
   2     5     1         -0.59478   0.59544   0.00000   0.09225  -0.03680
   3     5     1          0.00000   0.00000   0.07444   0.00000   0.00000
   1     6     1         -0.30216  -0.25376   0.44403  -0.02653   0.02157
   2     6     1          0.03461  -0.01477  -0.04442  -0.00096  -0.01858
   3     6     1          0.40095   0.42728  -0.54288   0.05310  -0.04879
   1     7     1         -0.30216  -0.25376  -0.44403  -0.02653   0.02157
   2     7     1          0.03461  -0.01477   0.04442  -0.00096  -0.01858
   3     7     1         -0.40095  -0.42728  -0.54288  -0.05310   0.04879
                           6         7         8         9        10
                          A'        A'        A"        A"        A"
       Frequencies ---  -244.0897  274.9974  492.8175  612.1975  653.9053
    Reduced masses ---     4.9222    6.7194    2.1488    1.0626    1.1051
   Force constants ---     0.1728    0.2994    0.3075    0.2346    0.2784
    IR Intensities ---     0.7981    4.9866    0.0737    2.8748    0.0245
 Coord Atom Element:
   1     1     6          0.32984   0.25038   0.00000   0.00000   0.00000
   2     1     6          0.31476  -0.11009   0.00000   0.00000   0.00000
   3     1     6          0.00000   0.00000  -0.07942  -0.02177  -0.08942
   1     2     6         -0.10914  -0.13348   0.00000   0.00000   0.00000
   2     2     6         -0.26003   0.51568   0.00000   0.00000   0.00000
   3     2     6          0.00000   0.00000   0.27939   0.06459   0.00171
   1     3     8         -0.21153  -0.14081   0.00000   0.00000   0.00000
   2     3     8         -0.07519  -0.31352   0.00000   0.00000   0.00000
   3     3     8          0.00000   0.00000  -0.11937   0.01570   0.02495
   1     4     1         -0.19703   0.01217   0.00000   0.00000   0.00000
   2     4     1         -0.30736   0.49077   0.00000   0.00000   0.00000
   3     4     1          0.00000   0.00000  -0.36438  -0.80043   0.21318
   1     5     1          0.33758   0.32053   0.00000   0.00000   0.00000
   2     5     1          0.26375  -0.03389   0.00000   0.00000   0.00000
   3     5     1          0.00000   0.00000   0.44750  -0.33345   0.01982
   1     6     1          0.29435   0.25513  -0.27694   0.26041   0.40313
   2     6     1          0.29267  -0.15523   0.35544  -0.13666   0.51686
   3     6     1          0.01995   0.00520  -0.28486   0.18743   0.20764
   1     7     1          0.29435   0.25513   0.27694  -0.26041  -0.40313
   2     7     1          0.29267  -0.15523  -0.35544   0.13666  -0.51686
   3     7     1         -0.01995  -0.00520  -0.28486   0.18743   0.20764
                          11        12        13        14        15
                          A'        A'        A"        A'        A'
       Frequencies ---   661.4632  698.9536  813.8912  814.2339  837.2969
    Reduced masses ---     1.0888    1.1543    1.1172    1.1158    1.1885
   Force constants ---     0.2807    0.3322    0.4360    0.4359    0.4909
    IR Intensities ---     0.4959    0.1937    4.2057    4.8632  133.7259
 Coord Atom Element:
   1     1     6         -0.05972  -0.02498   0.00000  -0.07522   0.08084
   2     1     6          0.05453   0.02724   0.00000   0.06424   0.09943
   3     1     6          0.00000   0.00000  -0.09970   0.00000   0.00000
   1     2     6          0.00626   0.08476   0.00000   0.00480   0.00282
   2     2     6         -0.01514   0.05628   0.00000  -0.00043   0.00122
   3     2     6          0.00000   0.00000   0.00222   0.00000   0.00000
   1     3     8          0.00637   0.01307   0.00000   0.00093  -0.00260
   2     3     8         -0.01914  -0.03171   0.00000  -0.00359   0.00070
   3     3     8          0.00000   0.00000   0.00201   0.00000   0.00000
   1     4     1          0.17105  -0.86767   0.00000  -0.01114   0.03843
   2     4     1          0.07974  -0.45686   0.00000  -0.00769   0.02577
   3     4     1          0.00000   0.00000   0.02522   0.00000   0.00000
   1     5     1          0.65944   0.07623   0.00000  -0.13946  -0.49542
   2     5     1          0.46717   0.07069   0.00000  -0.07351  -0.27278
   3     5     1          0.00000   0.00000   0.79156   0.00000   0.00000
   1     6     1         -0.14751  -0.06387   0.19972   0.48719  -0.24887
   2     6     1         -0.35606  -0.05258  -0.34233  -0.31071  -0.48126
   3     6     1         -0.05903  -0.02277   0.15603   0.38559  -0.19297
   1     7     1         -0.14751  -0.06387  -0.19972   0.48719  -0.24887
   2     7     1         -0.35606  -0.05258   0.34233  -0.31071  -0.48126
   3     7     1          0.05903   0.02277   0.15603  -0.38559   0.19297
 Harmonic frequencies (cm**-1), IR intensities (KM/Mole), Raman scattering
 activities (A**4/AMU), depolarization ratios for plane and unpolarized
 incident light, reduced masses (AMU), force constants (mDyne/A),
 and normal coordinates:
                     1                      2                      3
                    A'                     A'                     A"
 Frequencies --  -930.2372              -909.5073              -903.5144
 Red. masses --     1.0264                 1.0846                 1.0817
 Frc consts  --     0.5233                 0.5286                 0.5203
 IR Inten    --    75.1548                13.3506                22.8417
  Atom  AN      X      Y      Z        X      Y      Z        X      Y      Z
     1   6     0.01   0.04   0.00     0.07  -0.05   0.00     0.00   0.00   0.08
     2   6     0.01   0.00   0.00    -0.01   0.01   0.00     0.00   0.00   0.00
     3   8     0.00   0.00   0.00     0.00   0.00   0.00     0.00   0.00   0.00
     4   1     0.01   0.02   0.00     0.06  -0.13   0.00     0.00   0.00   0.00
     5   1     0.37  -0.59   0.00    -0.35   0.60   0.00     0.00   0.00   0.07
     6   1    -0.30   0.03   0.40    -0.25  -0.01   0.43     0.44  -0.04  -0.54
     7   1    -0.30   0.03  -0.40    -0.25  -0.01  -0.43    -0.44   0.04  -0.54
                     4                      5                      6
                    A'                     A'                     A'
 Frequencies --  -890.0349              -571.0612              -244.0897
 Red. masses --     1.1633                 5.4654                 4.9222
 Frc consts  --     0.5429                 1.0501                 0.1728
 IR Inten    --    23.9878                 0.1403                 0.7981
  Atom  AN      X      Y      Z        X      Y      Z        X      Y      Z
     1   6     0.01  -0.02   0.00    -0.03  -0.06   0.00     0.33   0.31   0.00
     2   6     0.09  -0.06   0.00     0.46   0.05   0.00    -0.11  -0.26   0.00
     3   8    -0.04   0.00   0.00    -0.36   0.04   0.00    -0.21  -0.08   0.00
     4   1    -0.43   0.89   0.00     0.67  -0.42   0.00    -0.20  -0.31   0.00
     5   1    -0.06   0.09   0.00    -0.05  -0.04   0.00     0.34   0.26   0.00
     6   1    -0.03   0.00   0.05     0.02  -0.02  -0.05     0.29   0.29   0.02
     7   1    -0.03   0.00  -0.05     0.02  -0.02   0.05     0.29   0.29  -0.02
                     7                      8                      9
                    A'                     A"                     A"
 Frequencies --   274.9974               492.8175               612.1975
 Red. masses --     6.7194                 2.1488                 1.0626
 Frc consts  --     0.2994                 0.3075                 0.2346
 IR Inten    --     4.9866                 0.0737                 2.8748
  Atom  AN      X      Y      Z        X      Y      Z        X      Y      Z
     1   6     0.25  -0.11   0.00     0.00   0.00  -0.08     0.00   0.00  -0.02
     2   6    -0.13   0.52   0.00     0.00   0.00   0.28     0.00   0.00   0.06
     3   8    -0.14  -0.31   0.00     0.00   0.00  -0.12     0.00   0.00   0.02
     4   1     0.01   0.49   0.00     0.00   0.00  -0.36     0.00   0.00  -0.80
     5   1     0.32  -0.03   0.00     0.00   0.00   0.45     0.00   0.00  -0.33
[...]
 Total V=0       0.176951D+13         12.247853         28.201723
 Vib (Bot)       0.136864D-05         -5.863710        -13.501691
 Vib (Bot)    1  0.700972D+00         -0.154299         -0.355287
 Vib (Bot)    2  0.335617D+00         -0.474156         -1.091785
 Vib (Bot)    3  0.240843D+00         -0.618266         -1.423609
 Vib (V=0)       0.189071D+01          0.276624          0.636951
 Vib (V=0)    1  0.136102D+01          0.133866          0.308237
 Vib (V=0)    2  0.110219D+01          0.042258          0.097304
 Vib (V=0)    3  0.105498D+01          0.023245          0.053524
 Electronic      0.100000D+01          0.000000          0.000000
 Translational   0.114821D+08          7.060022         16.256302
 Rotational      0.815091D+05          4.911206         11.308470
 
                                                                 ffff
                                                             IR Spectrum
 
                                                                                                                                     
     8  88                6     66      6                 4                                2                                         
     3  11                9     65      1                 9                                7                                         
     7  44                9     14      2                 3                                5                                         
 
     X  XX                X     X       X                 X                                X                                         
     X                                                                                                                               
     X                                                                                                                               
     X                                                                                                                               
     X                                                                                                                               
     X                                                                                                                               
     X                                                                                                                               
     X                                                                                                                               
     X                                                                                                                               
     X                                                                                                                               
     X                                                                                                                               
     X                                                                                                                               
     X                                                                                                                               
     X                                                                                                                               
     X                                                                                                                               
     X                                                                                                                               
     X                                                                                                                               
     X                                                                                                                               
     X                                                                                                                               
     X                                                                                                                               
 
 Forces in standard orientation:
 -------------------------------------------------------------------
 Center     Atomic                   Forces (Hartrees/Bohr)
 Number     Number              X              Y              Z
 -------------------------------------------------------------------
      1        6           0.023587747    0.024902793    0.000000000
      2        6          -0.044510187   -0.019402945    0.000000000
      3        8           0.086470313   -0.008393628    0.000000000
      4        1          -0.025222548    0.049870190    0.000000000
      5        1           0.029608043   -0.050511285    0.000000000
      6        1          -0.034966684    0.001767437    0.046242867
      7        1          -0.034966684    0.001767437   -0.046242867
 -------------------------------------------------------------------
 ***** Axes restored to original set *****
 Rotating derivatives, DoTrsp=F IDiff=-2 LEDeriv=   1061 LFDPrp=       0 LDFDPr=       0.
 -------------------------------------------------------------------
 Center     Atomic                   Forces (Hartrees/Bohr)
 Number     Number              X              Y              Z
 -------------------------------------------------------------------
      1        6          -0.002792843    0.000000000   -0.034186706
      2        6           0.022548385    0.000000000    0.043002341
      3        8          -0.072668861    0.000000000   -0.047610972
      4        1           0.050896156    0.000000000   -0.023082333
      5        1          -0.054716585    0.000000000    0.020835581
      6        1           0.028366875    0.046242867    0.020521044
      7        1           0.028366875   -0.046242867    0.020521044
 -------------------------------------------------------------------
 Cartesian Forces:  Max     0.072668861 RMS     0.034059723
 Z-matrix is all fixed cartesians, so copy forces.
 Force constants in Cartesian coordinates: 
                1             2             3             4             5 
      1  0.117807D-01
      2  0.000000D+00  0.120135D-01
      3 -0.155739D-03  0.000000D+00  0.306000D-01
      4 -0.132869D-01  0.000000D+00  0.511001D-02 -0.673197D-01
      5  0.000000D+00 -0.567238D-02  0.000000D+00  0.000000D+00  0.335940D-01
      6 -0.272293D-02  0.000000D+00  0.177973D-01 -0.383508D-01  0.000000D+00
      7  0.260359D-02  0.000000D+00 -0.589187D-02  0.569360D-01  0.000000D+00
      8  0.000000D+00 -0.368367D-03  0.000000D+00  0.000000D+00 -0.176669D-01
      9  0.476209D-03  0.000000D+00 -0.201332D-02  0.546687D-01  0.000000D+00
     10  0.741564D-03  0.000000D+00 -0.932828D-04  0.221019D-01  0.000000D+00
     11  0.000000D+00 -0.613723D-03  0.000000D+00  0.000000D+00 -0.114862D-01
     12  0.150669D-02  0.000000D+00  0.338153D-02 -0.205433D-01  0.000000D+00
     13  0.212670D-01  0.000000D+00 -0.156384D-01  0.282141D-03  0.000000D+00
     14  0.000000D+00 -0.237051D-01  0.000000D+00  0.000000D+00 -0.130164D-03
     15 -0.129175D-01  0.000000D+00 -0.167656D-01  0.174349D-02  0.000000D+00
     16 -0.115530D-01  0.196198D-01  0.833466D-02  0.643235D-03  0.493982D-03
     17  0.201910D-01  0.917307D-02  0.135278D-01  0.683709D-03  0.680829D-03
     18  0.690664D-02  0.102942D-01 -0.165000D-01 -0.131409D-02 -0.345111D-03
     19 -0.115530D-01 -0.196198D-01  0.833466D-02  0.643235D-03 -0.493982D-03
     20 -0.201910D-01  0.917307D-02 -0.135278D-01 -0.683709D-03  0.680829D-03
     21  0.690664D-02 -0.102942D-01 -0.165000D-01 -0.131409D-02  0.345111D-03
                6             7             8             9            10 
      6 -0.127137D-01
      7  0.541700D-01 -0.560451D-01
      8  0.000000D+00  0.000000D+00  0.191879D-01
      9  0.966851D-02 -0.521265D-01  0.000000D+00 -0.128723D-01
     10 -0.134781D-01 -0.319051D-02  0.000000D+00 -0.287932D-02 -0.197638D-01
     11  0.000000D+00  0.000000D+00 -0.101144D-02  0.000000D+00  0.000000D+00
     12 -0.174328D-01  0.350706D-02  0.000000D+00  0.436314D-02  0.160903D-01
     13 -0.167855D-02  0.767298D-03  0.000000D+00  0.297640D-03 -0.999047D-04
     14  0.000000D+00  0.000000D+00  0.888421D-05  0.000000D+00  0.000000D+00
     15  0.128455D-02 -0.342021D-03  0.000000D+00  0.363794D-03 -0.142705D-03
     16  0.103017D-02 -0.535665D-03 -0.636048D-04 -0.218360D-03  0.105378D-03
     17  0.161006D-02 -0.789784D-03 -0.750255D-04 -0.212754D-03  0.230434D-03
     18  0.698067D-03  0.341679D-03 -0.111980D-03  0.245098D-03  0.251540D-03
     19  0.103017D-02 -0.535665D-03  0.636048D-04 -0.218360D-03  0.105378D-03
     20 -0.161006D-02  0.789784D-03 -0.750255D-04  0.212754D-03 -0.230434D-03
     21  0.698067D-03  0.341679D-03  0.111980D-03  0.245098D-03  0.251540D-03
               11            12            13            14            15 
     11  0.132191D-01
     12  0.000000D+00  0.949391D-02
     13  0.000000D+00 -0.812009D-03 -0.245910D-01
     14  0.902921D-04  0.000000D+00  0.000000D+00  0.197278D-01
     15  0.000000D+00 -0.100359D-03  0.156024D-01  0.000000D+00  0.129697D-01
     16 -0.108488D-03  0.125605D-03  0.118722D-02 -0.154900D-02 -0.197180D-02
     17 -0.990008D-04  0.264141D-03  0.148490D-03  0.200418D-02 -0.173181D-03
     18 -0.164239D-03  0.147304D-03  0.111450D-02  0.168525D-02  0.112395D-02
     19  0.108488D-03  0.125605D-03  0.118722D-02  0.154900D-02 -0.197180D-02
     20 -0.990008D-04 -0.264141D-03 -0.148490D-03  0.200418D-02  0.173181D-03
     21  0.164239D-03  0.147304D-03  0.111450D-02 -0.168525D-02  0.112395D-02
               16            17            18            19            20 
     16  0.773055D-02
     17 -0.194283D-01 -0.121812D-01
     18 -0.808552D-02 -0.131871D-01  0.130389D-01
     19  0.242230D-02 -0.103560D-02  0.785247D-03  0.773055D-02
     20  0.103560D-02  0.497142D-03  0.182898D-02  0.194283D-01 -0.121812D-01
     21  0.785247D-03 -0.182898D-02  0.124663D-02 -0.808552D-02  0.131871D-01
               21 
     21  0.130389D-01
 Final forces over variables, Energy=-1.52816475D+02:
 -2.79284332D-03 2.25483846D-02-7.26688612D-02 5.08961557D-02
 -5.47165848D-02 2.83668746D-02 2.83668746D-02-1.77656576D-15
 -8.74733876D-17-6.56268154D-17 5.22812664D-17 1.53954850D-17
  4.62428671D-02-4.62428671D-02-3.41867063D-02 4.30023413D-02
 -4.76109720D-02-2.30823325D-02 2.08355810D-02 2.05210443D-02
  2.05210443D-02
 Leave Link  716 at Thu Aug 08 20:06:18 2019, MaxMem=  131072000 cpu:       0.0
 (Enter C:\G09W\l103.exe)

 GradGradGradGradGradGradGradGradGradGradGradGradGradGradGradGradGradGrad
 Berny optimization.
 Search for a local minimum.
 Step number   1 out of a maximum of    2
 All quantities printed in internal units (Hartrees-Bohrs-Radians)
 Second derivative matrix not updated -- analytic derivatives used.
 ITU=  0
     Eigenvalues ---   -0.18559  -0.04636  -0.04490  -0.03810  -0.03680
     Eigenvalues ---   -0.01390   0.01439   0.01768   0.01772   0.02096
     Eigenvalues ---    0.04009   0.04087   0.05020   0.05045   0.06192
 Eigenvalue     1 is  -1.86D-01 should be greater than     0.000000 Eigenvector:
                          X2        X3        Z2        Z3        Z4
   1                    0.62584  -0.54542   0.38236  -0.36623   0.14519
                          X4        X1        Z1        Z6        Z7
   1                   -0.07268   0.04554  -0.03173   0.01613   0.01613
 Eigenvalue     2 is  -4.64D-02 should be greater than     0.000000 Eigenvector:
                          X5        X1        Y6        Y7        Z5
   1                    0.68144  -0.38509   0.36341  -0.36341  -0.25282
                          X6        X7        Z6        Z7        Z1
   1                    0.11915   0.11915   0.11259   0.11259  -0.04248
 Eigenvalue     3 is  -4.49D-02 should be greater than     0.000000 Eigenvector:
                          Y7        Y6        Y1        X7        X6
   1                    0.50468   0.50468  -0.36993  -0.36298   0.36298
                          Z7        Z6        Y5        Y2        Y4
   1                   -0.20173   0.20173  -0.09390  -0.00410   0.00385
 Eigenvalue     4 is  -3.81D-02 should be greater than     0.000000 Eigenvector:
                          X4        X5        Z2        Z1        Y7
   1                    0.60369  -0.42122   0.30179  -0.30151  -0.28663
                          Y6        X7        X6        X2        Z4
   1                    0.28663   0.18170   0.18170  -0.14997  -0.12313
 Eigenvalue     5 is  -3.68D-02 should be greater than     0.000000 Eigenvector:
                          X4        X5        Y7        Y6        X7
   1                    0.60810   0.39979   0.33855  -0.33855  -0.19424
                          X6        Z4        Z2        X2        Z5
   1                   -0.19424  -0.18925   0.18875  -0.14228  -0.12362
 Eigenvalue     6 is  -1.39D-02 should be greater than     0.000000 Eigenvector:
                          Z1        Z2        Z4        Z5        Z6
   1                    0.46684  -0.36270  -0.36106   0.34672   0.33343
                          Z7        Z3        X4        X3        X6
   1                    0.33343  -0.32089   0.17821  -0.14860   0.07276
 Quadratic step=4.555D+00 exceeds max=3.000D-01 adjusted using Lamda=-4.457D-01.
 Angle between NR and scaled steps=  30.35 degrees.
 Angle between quadratic step and forces=  12.21 degrees.
 ClnCor:  largest displacement from symmetrization is 1.69D-11 for atom     2.
 Linear search not attempted -- first point.
 ClnCor:  largest displacement from symmetrization is 4.75D-15 for atom     7.
 TrRot= -0.009709  0.000000 -0.010870  0.000000 -0.001707  0.000000
 Variable       Old X    -DE/DX   Delta X   Delta X   Delta X     New X
                                 (Linear)    (Quad)   (Total)
    X1        0.00000  -0.00279   0.00000   0.00493  -0.00470  -0.00470
    Y1        0.00000   0.00000   0.00000   0.00000   0.00000   0.00000
    Z1        0.00000  -0.03419   0.00000  -0.04865  -0.05952  -0.05952
    X2        0.00000   0.02255   0.00000   0.04726   0.02822   0.02822
    Y2        0.00000   0.00000   0.00000   0.00000   0.00000   0.00000
    Z2        5.37648   0.04300   0.00000   0.09024   0.07945   5.45593
    X3        3.58881  -0.07267   0.00000  -0.09381  -0.11675   3.47206
    Y3        0.00000   0.00000   0.00000   0.00000   0.00000   0.00000
    Z3        7.82169  -0.04761   0.00000  -0.07463  -0.07955   7.74215
    X4       -3.57923   0.05090   0.00000   0.12076   0.09905  -3.48019
    Y4        0.00000   0.00000   0.00000   0.00000   0.00000   0.00000
    Z4        7.08211  -0.02308   0.00000  -0.04416  -0.06094   7.02116
    X5        3.67079  -0.05472   0.00000  -0.10948  -0.11701   3.55378
    Y5        0.00000   0.00000   0.00000   0.00000   0.00000   0.00000
    Z5       -1.32497   0.02084   0.00000   0.04848   0.04369  -1.28128
    X6       -1.90351   0.02837   0.00000   0.06312   0.05560  -1.84792
    Y6       -3.15579   0.04624   0.00000   0.09635   0.09635  -3.05943
    Z6       -1.33399   0.02052   0.00000   0.05244   0.03843  -1.29556
    X7       -1.90351   0.02837   0.00000   0.06312   0.05560  -1.84792
    Y7        3.15579  -0.04624   0.00000  -0.09635  -0.09635   3.05943
    Z7       -1.33399   0.02052   0.00000   0.05244   0.03843  -1.29556
         Item               Value     Threshold  Converged?
 Maximum Force            0.072669     0.000450     NO 
 RMS     Force            0.034060     0.000300     NO 
 Maximum Displacement     0.117011     0.001800     NO 
 RMS     Displacement     0.064535     0.001200     NO 
 Predicted change in Energy=-4.857566D-02
 GradGradGradGradGradGradGradGradGradGradGradGradGradGradGradGradGradGrad

 Leave Link  103 at Thu Aug 08 20:06:18 2019, MaxMem=  131072000 cpu:       0.0
 (Enter C:\G09W\l9999.exe)

 Test job not archived.
 1|1|UNPC-WIN-3U8THI5R4SL|Freq|RB3LYP|6-31G(d)|C2H4O1|ADMINISTRATOR|08-
 Aug-2019|0||#p b3lyp/6-31g* freq=noraman IOP(7/33=1)||ffff||0,1|C,0.,0
 .,0.|C,0.,0.,2.8451121312|O,1.8991159617,0.,4.1390625272|H,-1.89404830
 85,0.,3.7476886722|H,1.94250082,0.,-0.701145982|H,-1.0072954669,-1.669
 9718427,-0.7059169668|H,-1.0072954669,1.6699718427,-0.7059169668||Vers
 ion=IA32W-G09RevC.01|State=1-A'|HF=-152.816475|RMSD=3.734e-009|RMSF=3.
 406e-002|ZeroPoint=0.0133495|Thermal=0.0176093|Dipole=-1.0631904,0.,-1
 .1193668|DipoleDeriv=0.2094459,0.,0.0224707,0.,0.3211734,0.,-0.0304248
 ,0.,0.6342541,0.0728428,0.,-0.2814585,0.,0.0569326,0.,-0.0822496,0.,0.
 2035114,-0.1065121,0.,0.1555214,0.,-0.2397665,0.,0.0904677,0.,-0.12220
 33,-0.0442013,0.,0.1330635,0.,0.0617435,0.,0.022557,0.,-0.0088719,-0.0
 282916,0.,0.0670439,0.,-0.0298547,0.,0.0530133,0.,-0.2362193,-0.051641
 9,-0.0310595,-0.0483205,-0.0198853,-0.0851141,-0.0717937,-0.0266818,-0
 .0402014,-0.2352355,-0.0516419,0.0310595,-0.0483205,0.0198853,-0.08511
 41,0.0717937,-0.0266818,0.0402014,-0.2352355|Polar=115.4976383,0.,61.2
 652481,5.9888148,0.,211.5920822|PG=CS [SG(C2H2O1),X(H2)]|NImag=6||0.01
 178074,0.,0.01201348,-0.00015574,0.,0.03059997,-0.01328688,0.,0.005110
 01,-0.06731966,0.,-0.00567238,0.,0.,0.03359398,-0.00272293,0.,0.017797
 30,-0.03835078,0.,-0.01271366,0.00260359,0.,-0.00589187,0.05693604,0.,
 0.05417001,-0.05604509,0.,-0.00036837,0.,0.,-0.01766688,0.,0.,0.019187
 86,0.00047621,0.,-0.00201332,0.05466872,0.,0.00966851,-0.05212654,0.,-
 0.01287232,0.00074156,0.,-0.00009328,0.02210188,0.,-0.01347809,-0.0031
 9051,0.,-0.00287932,-0.01976379,0.,-0.00061372,0.,0.,-0.01148622,0.,0.
 ,-0.00101144,0.,0.,0.01321909,0.00150669,0.,0.00338153,-0.02054327,0.,
 -0.01743283,0.00350706,0.,0.00436314,0.01609032,0.,0.00949391,0.021267
 01,0.,-0.01563844,0.00028214,0.,-0.00167855,0.00076730,0.,0.00029764,-
 0.00009990,0.,-0.00081201,-0.02459099,0.,-0.02370514,0.,0.,-0.00013016
 ,0.,0.,0.00000888,0.,0.,0.00009029,0.,0.,0.01972778,-0.01291752,0.,-0.
 01676557,0.00174349,0.,0.00128455,-0.00034202,0.,0.00036379,-0.0001427
 0,0.,-0.00010036,0.01560237,0.,0.01296969,-0.01155302,0.01961978,0.008
 33466,0.00064324,0.00049398,0.00103017,-0.00053567,-0.00006360,-0.0002
 1836,0.00010538,-0.00010849,0.00012560,0.00118722,-0.00154900,-0.00197
 180,0.00773055,0.02019104,0.00917307,0.01352780,0.00068371,0.00068083,
 0.00161006,-0.00078978,-0.00007503,-0.00021275,0.00023043,-0.00009900,
 0.00026414,0.00014849,0.00200418,-0.00017318,-0.01942828,-0.01218119,0
 .00690664,0.01029418,-0.01649996,-0.00131409,-0.00034511,0.00069807,0.
 00034168,-0.00011198,0.00024510,0.00025154,-0.00016424,0.00014730,0.00
 111450,0.00168525,0.00112395,-0.00808552,-0.01318708,0.01303891,-0.011
 55302,-0.01961978,0.00833466,0.00064324,-0.00049398,0.00103017,-0.0005
 3567,0.00006360,-0.00021836,0.00010538,0.00010849,0.00012560,0.0011872
 2,0.00154900,-0.00197180,0.00242230,-0.00103560,0.00078525,0.00773055,
 -0.02019104,0.00917307,-0.01352780,-0.00068371,0.00068083,-0.00161006,
 0.00078978,-0.00007503,0.00021275,-0.00023043,-0.00009900,-0.00026414,
 -0.00014849,0.00200418,0.00017318,0.00103560,0.00049714,0.00182898,0.0
 1942828,-0.01218119,0.00690664,-0.01029418,-0.01649996,-0.00131409,0.0
 0034511,0.00069807,0.00034168,0.00011198,0.00024510,0.00025154,0.00016
 424,0.00014730,0.00111450,-0.00168525,0.00112395,0.00078525,-0.0018289
 8,0.00124663,-0.00808552,0.01318708,0.01303891||0.00279284,0.,0.034186
 71,-0.02254838,0.,-0.04300234,0.07266886,0.,0.04761097,-0.05089616,0.,
 0.02308233,0.05471658,0.,-0.02083558,-0.02836687,-0.04624287,-0.020521
 04,-0.02836687,0.04624287,-0.02052104|||@


 IN SO FAR AS QUANTUM MECHANICS IS CORRECT, CHEMICAL 
 QUESTIONS ARE PROBLEMS IN APPLIED MATHEMATICS.

                    -- EYRING, WALTER, & KIMBALL, 1944
 Job cpu time:  0 days  0 hours  0 minutes 26.0 seconds.
 File lengths (MBytes):  RWF=      5 Int=      0 D2E=      0 Chk=      1 Scr=      1
 Normal termination of Gaussian 09 at Thu Aug 08 20:06:18 2019.
