 Entering Gaussian System, Link 0=g09
 Input=T1.gjf
 Output=D:\ChemGo\ChemGo\test\MECP\Example1\Opt\T1.out
 Initial command:
 C:\G09W\l1.exe .\gxx.inp D:\ChemGo\ChemGo\test\MECP\Example1\Opt\T1.out /scrdir=.\
 Entering Link 1 = C:\G09W\l1.exe PID=      8780.
  
 Copyright (c) 1988,1990,1992,1993,1995,1998,2003,2009,2011,
            Gaussian, Inc.  All Rights Reserved.
  
 This is part of the Gaussian(R) 09 program.  It is based on
 the Gaussian(R) 03 system (copyright 2003, Gaussian, Inc.),
 the Gaussian(R) 98 system (copyright 1998, Gaussian, Inc.),
 the Gaussian(R) 94 system (copyright 1995, Gaussian, Inc.),
 the Gaussian 92(TM) system (copyright 1992, Gaussian, Inc.),
 the Gaussian 90(TM) system (copyright 1990, Gaussian, Inc.),
 the Gaussian 88(TM) system (copyright 1988, Gaussian, Inc.),
 the Gaussian 86(TM) system (copyright 1986, Carnegie Mellon
 University), and the Gaussian 82(TM) system (copyright 1983,
 Carnegie Mellon University). Gaussian is a federally registered
 trademark of Gaussian, Inc.
  
 This software contains proprietary and confidential information,
 including trade secrets, belonging to Gaussian, Inc.
  
 This software is provided under written license and may be
 used, copied, transmitted, or stored only in accord with that
 written license.
  
 The following legend is applicable only to US Government
 contracts under FAR:
  
                    RESTRICTED RIGHTS LEGEND
  
 Use, reproduction and disclosure by the US Government is
 subject to restrictions as set forth in subparagraphs (a)
 and (c) of the Commercial Computer Software - Restricted
 Rights clause in FAR 52.227-19.
  
 Gaussian, Inc.
 340 Quinnipiac St., Bldg. 40, Wallingford CT 06492
  
  
 ---------------------------------------------------------------
 Warning -- This program may not be used in any manner that
 competes with the business of Gaussian, Inc. or will provide
 assistance to any competitor of Gaussian, Inc.  The licensee
 of this program is prohibited from giving any competitor of
 Gaussian, Inc. access to this program.  By using this program,
 the user acknowledges that Gaussian, Inc. is engaged in the
 business of creating and licensing software in the field of
 computational chemistry and represents and warrants to the
 licensee that it is not a competitor of Gaussian, Inc. and that
 it will not use this program in any manner prohibited above.
 ---------------------------------------------------------------
  

 Cite this work as:
 Gaussian 09, Revision C.01,
 M. J. Frisch, G. W. Trucks, H. B. Schlegel, G. E. Scuseria, 
 M. A. Robb, J. R. Cheeseman, G. Scalmani, V. Barone, B. Mennucci, 
 G. A. Petersson, H. Nakatsuji, M. Caricato, X. Li, H. P. Hratchian, 
 A. F. Izmaylov, J. Bloino, G. Zheng, J. L. Sonnenberg, M. Hada, 
 M. Ehara, K. Toyota, R. Fukuda, J. Hasegawa, M. Ishida, T. Nakajima, 
 Y. Honda, O. Kitao, H. Nakai, T. Vreven, J. A. Montgomery, Jr., 
 J. E. Peralta, F. Ogliaro, M. Bearpark, J. J. Heyd, E. Brothers, 
 K. N. Kudin, V. N. Staroverov, T. Keith, R. Kobayashi, J. Normand, 
 K. Raghavachari, A. Rendell, J. C. Burant, S. S. Iyengar, J. Tomasi, 
 M. Cossi, N. Rega, J. M. Millam, M. Klene, J. E. Knox, J. B. Cross, 
 V. Bakken, C. Adamo, J. Jaramillo, R. Gomperts, R. E. Stratmann, 
 O. Yazyev, A. J. Austin, R. Cammi, C. Pomelli, J. W. Ochterski, 
 R. L. Martin, K. Morokuma, V. G. Zakrzewski, G. A. Voth, 
 P. Salvador, J. J. Dannenberg, S. Dapprich, A. D. Daniels, 
 O. Farkas, J. B. Foresman, J. V. Ortiz, J. Cioslowski, 
 and D. J. Fox, Gaussian, Inc., Wallingford CT, 2010.
 
 ******************************************
 Gaussian 09:  IA32W-G09RevC.01 23-Sep-2011
                13-Sep-2019 
 ******************************************
 %chk=LiuKun2.chk
 %mem=1000mb
 ----------------------------------------------------
 #p b3lyp/6-31g* td(root=1) scf=maxcycle=999 opt freq
 ----------------------------------------------------
 1/14=-1,18=20,19=15,26=3,38=1/1,3;
 2/9=110,12=2,17=6,18=5,40=1/2;
 3/5=1,6=6,7=1,11=2,16=1,25=1,30=1,71=1,74=-5/1,2,8,3;
 4//1;
 5/5=2,7=999,38=5/2;
 8/6=1,10=2,107=1/1;
 9/8=1,15=2,42=1/14;
 10/5=4/2;
 6/7=2,8=2,9=2,10=2/1;
 7/12=6,13=5,14=1/1,2,3,16;
 1/14=-1,18=20,19=15/3(2);
 2/9=110/2;
 99//99;
 2/9=110/2;
 3/5=1,6=6,7=1,11=2,16=1,25=1,30=1,71=1,74=-5/1,2,8,3;
 4/5=5,16=3/1;
 5/5=2,7=999,38=5/2;
 8/6=1,10=2,107=1/1;
 9/8=1,15=2,42=1,49=4/14;
 10/5=4/2;
 7/12=6,13=5,14=1/1,2,3,16;
 1/14=-1,18=20,19=15/3(-8);
 2/9=110/2;
 6/7=2,8=2,9=2,10=2/1;
 99//99;
 Leave Link    1 at Fri Sep 13 02:47:15 2019, MaxMem=  131072000 cpu:       0.0
 (Enter C:\G09W\l101.exe)
 --
 T1
 --
 Charge =  0 Multiplicity = 3
 Symbolic Z-Matrix:
 H
 N                    1    B1
 C                    2    B2       1    A1
 O                    3    B3       2    A2       1    D1       0
       Variables:
  B1                    1.0507                   
  B2                    1.36263                  
  B3                    1.23418                  
  A1                  107.74572                  
  A2                  134.09794                  
  D1                  150.                       
 
 NAtoms=      4 NQM=        0 NQMF=       0 NMMI=      4 NMMIF=      0
                NMic=       0 NMicF=      0.
                    Isotopes and Nuclear Properties:
 (Nuclear quadrupole moments (NQMom) in fm**2, nuclear magnetic moments (NMagM)
  in nuclear magnetons)

  Atom         1           2           3           4
 IAtWgt=           1          14          12          16
 AtmWgt=   1.0078250  14.0030740  12.0000000  15.9949146
 NucSpn=           1           2           0           0
 AtZEff=   0.0000000   0.0000000   0.0000000   0.0000000
 NQMom=    0.0000000   2.0440000   0.0000000   0.0000000
 NMagM=    2.7928460   0.4037610   0.0000000   0.0000000
 Leave Link  101 at Fri Sep 13 02:47:15 2019, MaxMem=  131072000 cpu:       0.0
 (Enter C:\G09W\l103.exe)

 GradGradGradGradGradGradGradGradGradGradGradGradGradGradGradGradGradGrad
 Berny optimization.
 Initialization pass.
                           ----------------------------
                           !    Initial Parameters    !
                           ! (Angstroms and Degrees)  !
 --------------------------                            --------------------------
 ! Name  Definition              Value          Derivative Info.                !
 --------------------------------------------------------------------------------
 ! R1    R(1,2)                  1.0507         estimate D2E/DX2                !
 ! R2    R(2,3)                  1.3626         estimate D2E/DX2                !
 ! R3    R(3,4)                  1.2342         estimate D2E/DX2                !
 ! A1    A(1,2,3)              107.7457         estimate D2E/DX2                !
 ! A2    A(2,3,4)              134.0979         estimate D2E/DX2                !
 ! D1    D(1,2,3,4)            150.0            estimate D2E/DX2                !
 --------------------------------------------------------------------------------
 Trust Radius=3.00D-01 FncErr=1.00D-07 GrdErr=1.00D-06
 Number of steps in this run=     20 maximum allowed number of steps=    100.
 GradGradGradGradGradGradGradGradGradGradGradGradGradGradGradGradGradGrad

 Leave Link  103 at Fri Sep 13 02:47:16 2019, MaxMem=  131072000 cpu:       0.0
 (Enter C:\G09W\l202.exe)
                          Input orientation:                          
 ---------------------------------------------------------------------
 Center     Atomic      Atomic             Coordinates (Angstroms)
 Number     Number       Type             X           Y           Z
 ---------------------------------------------------------------------
      1          1           0        0.000000    0.000000    0.000000
      2          7           0        0.000000    0.000000    1.050704
      3          6           0        1.297798    0.000000    1.466025
      4          8           0        1.881830    0.443165    2.458860
 ---------------------------------------------------------------------
                    Distance matrix (angstroms):
                    1          2          3          4
     1  H    0.000000
     2  N    1.050704   0.000000
     3  C    1.957935   1.362634   0.000000
     4  O    3.127887   2.391774   1.234184   0.000000
 Stoichiometry    CHNO(3)
 Framework group  C1[X(CHNO)]
 Deg. of freedom     6
 Full point group                 C1      NOp   1
 Largest Abelian subgroup         C1      NOp   1
 Largest concise Abelian subgroup C1      NOp   1
                         Standard orientation:                         
 ---------------------------------------------------------------------
 Center     Atomic      Atomic             Coordinates (Angstroms)
 Number     Number       Type             X           Y           Z
 ---------------------------------------------------------------------
      1          1           0       -1.842415    0.507548    0.321085
      2          7           0       -1.176777   -0.228259   -0.024592
      3          6           0        0.065117    0.329489   -0.082806
      4          8           0        1.211143   -0.110834    0.043487
 ---------------------------------------------------------------------
 Rotational constants (GHZ):    188.8051186     10.8734864     10.3660379
 Leave Link  202 at Fri Sep 13 02:47:16 2019, MaxMem=  131072000 cpu:       0.0
 (Enter C:\G09W\l301.exe)
 Standard basis: 6-31G(d) (6D, 7F)
 Ernie: Thresh=  0.10000D-02 Tol=  0.10000D-05 Strict=F.
 There are    47 symmetry adapted basis functions of A   symmetry.
 Integral buffers will be    262144 words long.
 Raffenetti 2 integral format.
 Two-electron integral symmetry is turned on.
    47 basis functions,    88 primitive gaussians,    47 cartesian basis functions
    12 alpha electrons       10 beta electrons
       nuclear repulsion energy        55.7819560734 Hartrees.
 IExCor=  402 DFT=T Ex+Corr=B3LYP ExCW=0 ScaHFX=  0.200000
 ScaDFX=  0.800000  0.720000  1.000000  0.810000 ScalE2=  1.000000  1.000000
 IRadAn=      0 IRanWt=     -1 IRanGd=            0 ICorTp=0
 NAtoms=    4 NActive=    4 NUniq=    4 SFac= 1.00D+00 NAtFMM=   60 NAOKFM=F Big=F
 Leave Link  301 at Fri Sep 13 02:47:16 2019, MaxMem=  131072000 cpu:       0.0
 (Enter C:\G09W\l302.exe)
 NPDir=0 NMtPBC=     1 NCelOv=     1 NCel=       1 NClECP=     1 NCelD=      1
         NCelK=      1 NCelE2=     1 NClLst=     1 CellRange=     0.0.
 One-electron integrals computed using PRISM.
 NBasis=    47 RedAO= T  NBF=    47
 NBsUse=    47 1.00D-06 NBFU=    47
 Precomputing XC quadrature grid using
 IXCGrd= 2 IRadAn=           0 IRanWt=          -1 IRanGd=           0 AccXCQ= 0.00D+00.
 NRdTot=     245 NPtTot=       30992 NUsed=       32147 NTot=       32163
 NSgBfM=    47    47    47    47    47 NAtAll=     4     4.
 Leave Link  302 at Fri Sep 13 02:47:17 2019, MaxMem=  131072000 cpu:       1.0
 (Enter C:\G09W\l308.exe)
 Leave Link  308 at Fri Sep 13 02:47:17 2019, MaxMem=  131072000 cpu:       0.0
 (Enter C:\G09W\l303.exe)
 DipDrv:  MaxL=1.
 Leave Link  303 at Fri Sep 13 02:47:17 2019, MaxMem=  131072000 cpu:       0.0
 (Enter C:\G09W\l401.exe)
 Harris functional with IExCor=  402 diagonalized for initial guess.
 ExpMin= 1.61D-01 ExpMax= 5.48D+03 ExpMxC= 8.25D+02 IAcc=1 IRadAn=         1 AccDes= 0.00D+00
 HarFok:  IExCor=  402 AccDes= 0.00D+00 IRadAn=         1 IDoV= 1
 ScaDFX=  1.000000  1.000000  1.000000  1.000000
 FoFCou: FMM=F IPFlag=           0 FMFlag=      100000 FMFlg1=           0
         NFxFlg=           0 DoJE=T BraDBF=F KetDBF=T FulRan=T
         Omega=  0.000000  0.000000  1.000000  0.000000  0.000000 ICntrl=     500 IOpCl=  0
         NMat0=    1 NMatS0=    1 NMatT0=    0 NMatD0=    1 NMtDS0=    0 NMtDT0=    0
         I1Cent=           4 NGrid=           0.
 Petite list used in FoFCou.
 Harris En= -168.477881177826    
 Initial guess orbital symmetries:
 Alpha Orbitals:
       Occupied  (A) (A) (A) (A) (A) (A) (A) (A) (A) (A) (A) (A)
       Virtual   (A) (A) (A) (A) (A) (A) (A) (A) (A) (A) (A) (A)
                 (A) (A) (A) (A) (A) (A) (A) (A) (A) (A) (A) (A)
                 (A) (A) (A) (A) (A) (A) (A) (A) (A) (A) (A)
 Beta  Orbitals:
       Occupied  (A) (A) (A) (A) (A) (A) (A) (A) (A) (A)
       Virtual   (A) (A) (A) (A) (A) (A) (A) (A) (A) (A) (A) (A)
                 (A) (A) (A) (A) (A) (A) (A) (A) (A) (A) (A) (A)
                 (A) (A) (A) (A) (A) (A) (A) (A) (A) (A) (A) (A)
                 (A)
 The electronic state of the initial guess is 3-A.
 Initial guess <Sx>= 0.0000 <Sy>= 0.0000 <Sz>= 1.0000 <S**2>= 2.0000 S= 1.0000
 Leave Link  401 at Fri Sep 13 02:47:18 2019, MaxMem=  131072000 cpu:       1.0
 (Enter C:\G09W\l502.exe)
 UHF open shell SCF:
 Requested convergence on RMS density matrix=1.00D-08 within 999 cycles.
 Requested convergence on MAX density matrix=1.00D-06.
 Requested convergence on             energy=1.00D-06.
 No special actions if energy rises.
 Using DIIS extrapolation, IDIIS=  1040.
 Integral symmetry usage will be decided dynamically.
        32103 words used for storage of precomputed grid.
 Keep R1 and R2 ints in memory in canonical form, NReq=3177144.
 IEnd=     1043413 IEndB=     1043413 NGot=   131072000 MDV=   129757303
 LenX=   129757303 LenY=   129754653
 Symmetry not used in FoFDir.
 MinBra= 0 MaxBra= 2 Meth= 1.
 IRaf=       0 NMat=   1 IRICut=       1 DoRegI=T DoRafI=F ISym2E= 0 JSym2E=0.
 Integral accuracy reduced to 1.0D-05 until final iterations.

 Cycle   1  Pass 0  IDiag  1:
 E= -168.501596817075    
 DIIS: error= 2.35D-02 at cycle   1 NSaved=   1.
 NSaved= 1 IEnMin= 1 EnMin= -168.501596817075     IErMin= 1 ErrMin= 2.35D-02
 ErrMax= 2.35D-02 EMaxC= 1.00D-01 BMatC= 1.72D-01 BMatP= 1.72D-01
 IDIUse=3 WtCom= 7.65D-01 WtEn= 2.35D-01
 Coeff-Com:  0.100D+01
 Coeff-En:   0.100D+01
 Coeff:      0.100D+01
 Gap=     0.180 Goal=   None    Shift=    0.000
 Gap=     0.124 Goal=   None    Shift=    0.000
 GapD=    0.124 DampG=1.000 DampE=0.500 DampFc=0.5000 IDamp=-1.
 Damping current iteration by 5.00D-01
 RMSDP=1.13D-02 MaxDP=1.62D-01              OVMax= 3.02D-01

 Cycle   2  Pass 0  IDiag  1:
 E= -168.488304959648     Delta-E=        0.013291857427 Rises=F Damp=T
 DIIS: error= 2.24D-02 at cycle   2 NSaved=   2.
 NSaved= 2 IEnMin= 1 EnMin= -168.501596817075     IErMin= 2 ErrMin= 2.24D-02
 ErrMax= 2.24D-02 EMaxC= 1.00D-01 BMatC= 1.10D-01 BMatP= 1.72D-01
 IDIUse=3 WtCom= 7.76D-01 WtEn= 2.24D-01
 Coeff-Com:  0.431D+00 0.569D+00
 Coeff-En:   0.601D+00 0.399D+00
 Coeff:      0.469D+00 0.531D+00
 Gap=     0.190 Goal=   None    Shift=    0.000
 Gap=     0.138 Goal=   None    Shift=    0.000
 RMSDP=3.31D-03 MaxDP=3.37D-02 DE= 1.33D-02 OVMax= 2.08D-01

 Cycle   3  Pass 0  IDiag  1:
 E= -168.535941133830     Delta-E=       -0.047636174182 Rises=F Damp=F
 DIIS: error= 5.67D-03 at cycle   3 NSaved=   3.
 NSaved= 3 IEnMin= 3 EnMin= -168.535941133830     IErMin= 3 ErrMin= 5.67D-03
 ErrMax= 5.67D-03 EMaxC= 1.00D-01 BMatC= 1.36D-02 BMatP= 1.10D-01
 IDIUse=3 WtCom= 9.43D-01 WtEn= 5.67D-02
 Coeff-Com:  0.141D+00 0.236D+00 0.622D+00
 Coeff-En:   0.000D+00 0.000D+00 0.100D+01
 Coeff:      0.133D+00 0.223D+00 0.644D+00
 Gap=     0.182 Goal=   None    Shift=    0.000
 Gap=     0.138 Goal=   None    Shift=    0.000
 RMSDP=1.65D-03 MaxDP=3.00D-02 DE=-4.76D-02 OVMax= 3.24D-02

 Cycle   4  Pass 0  IDiag  1:
 E= -168.538182053275     Delta-E=       -0.002240919445 Rises=F Damp=F
 DIIS: error= 4.27D-03 at cycle   4 NSaved=   4.
 NSaved= 4 IEnMin= 4 EnMin= -168.538182053275     IErMin= 4 ErrMin= 4.27D-03
 ErrMax= 4.27D-03 EMaxC= 1.00D-01 BMatC= 5.28D-03 BMatP= 1.36D-02
 IDIUse=3 WtCom= 9.57D-01 WtEn= 4.27D-02
 Coeff-Com:  0.992D-03 0.473D-02 0.376D+00 0.618D+00
 Coeff-En:   0.000D+00 0.000D+00 0.263D+00 0.737D+00
 Coeff:      0.950D-03 0.452D-02 0.371D+00 0.623D+00
 Gap=     0.184 Goal=   None    Shift=    0.000
 Gap=     0.143 Goal=   None    Shift=    0.000
 RMSDP=8.03D-04 MaxDP=1.28D-02 DE=-2.24D-03 OVMax= 2.16D-02

 Cycle   5  Pass 0  IDiag  1:
 E= -168.539385943114     Delta-E=       -0.001203889839 Rises=F Damp=F
 DIIS: error= 1.26D-03 at cycle   5 NSaved=   5.
 NSaved= 5 IEnMin= 5 EnMin= -168.539385943114     IErMin= 5 ErrMin= 1.26D-03
 ErrMax= 1.26D-03 EMaxC= 1.00D-01 BMatC= 3.94D-04 BMatP= 5.28D-03
 IDIUse=3 WtCom= 9.87D-01 WtEn= 1.26D-02
 Coeff-Com: -0.995D-02-0.227D-01 0.106D+00 0.291D+00 0.635D+00
 Coeff-En:   0.000D+00 0.000D+00 0.000D+00 0.000D+00 0.100D+01
 Coeff:     -0.983D-02-0.224D-01 0.105D+00 0.287D+00 0.640D+00
 Gap=     0.185 Goal=   None    Shift=    0.000
 Gap=     0.143 Goal=   None    Shift=    0.000
 RMSDP=2.69D-04 MaxDP=3.26D-03 DE=-1.20D-03 OVMax= 6.09D-03

 Cycle   6  Pass 0  IDiag  1:
 E= -168.539510312399     Delta-E=       -0.000124369286 Rises=F Damp=F
 DIIS: error= 2.90D-04 at cycle   6 NSaved=   6.
 NSaved= 6 IEnMin= 6 EnMin= -168.539510312399     IErMin= 6 ErrMin= 2.90D-04
 ErrMax= 2.90D-04 EMaxC= 1.00D-01 BMatC= 2.69D-05 BMatP= 3.94D-04
 IDIUse=3 WtCom= 9.97D-01 WtEn= 2.90D-03
 Coeff-Com: -0.955D-03-0.715D-02-0.403D-01-0.723D-01 0.659D-01 0.105D+01
 Coeff-En:   0.000D+00 0.000D+00 0.000D+00 0.000D+00 0.000D+00 0.100D+01
 Coeff:     -0.952D-03-0.713D-02-0.402D-01-0.721D-01 0.657D-01 0.105D+01
 Gap=     0.185 Goal=   None    Shift=    0.000
 Gap=     0.143 Goal=   None    Shift=    0.000
 RMSDP=1.44D-04 MaxDP=1.86D-03 DE=-1.24D-04 OVMax= 5.44D-03

 Cycle   7  Pass 0  IDiag  1:
 E= -168.539532349298     Delta-E=       -0.000022036899 Rises=F Damp=F
 DIIS: error= 9.97D-05 at cycle   7 NSaved=   7.
 NSaved= 7 IEnMin= 7 EnMin= -168.539532349298     IErMin= 7 ErrMin= 9.97D-05
 ErrMax= 9.97D-05 EMaxC= 1.00D-01 BMatC= 3.50D-06 BMatP= 2.69D-05
 IDIUse=1 WtCom= 1.00D+00 WtEn= 0.00D+00
 Coeff-Com:  0.223D-02 0.138D-03-0.993D-02-0.323D-01-0.714D-01 0.277D-01
 Coeff-Com:  0.108D+01
 Coeff:      0.223D-02 0.138D-03-0.993D-02-0.323D-01-0.714D-01 0.277D-01
 Coeff:      0.108D+01
 Gap=     0.185 Goal=   None    Shift=    0.000
 Gap=     0.144 Goal=   None    Shift=    0.000
 RMSDP=6.96D-05 MaxDP=7.87D-04 DE=-2.20D-05 OVMax= 3.35D-03

 Cycle   8  Pass 0  IDiag  1:
 E= -168.539536662915     Delta-E=       -0.000004313617 Rises=F Damp=F
 DIIS: error= 5.21D-05 at cycle   8 NSaved=   8.
 NSaved= 8 IEnMin= 8 EnMin= -168.539536662915     IErMin= 8 ErrMin= 5.21D-05
 ErrMax= 5.21D-05 EMaxC= 1.00D-01 BMatC= 7.63D-07 BMatP= 3.50D-06
 IDIUse=1 WtCom= 1.00D+00 WtEn= 0.00D+00
 Coeff-Com:  0.465D-03-0.443D-03 0.948D-02 0.193D-01 0.786D-02-0.161D+00
 Coeff-Com: -0.288D+00 0.141D+01
 Coeff:      0.465D-03-0.443D-03 0.948D-02 0.193D-01 0.786D-02-0.161D+00
 Coeff:     -0.288D+00 0.141D+01
 Gap=     0.185 Goal=   None    Shift=    0.000
 Gap=     0.144 Goal=   None    Shift=    0.000
 RMSDP=4.69D-05 MaxDP=5.46D-04 DE=-4.31D-06 OVMax= 2.45D-03

 Cycle   9  Pass 0  IDiag  1:
 E= -168.539537914766     Delta-E=       -0.000001251851 Rises=F Damp=F
 DIIS: error= 2.05D-05 at cycle   9 NSaved=   9.
 NSaved= 9 IEnMin= 9 EnMin= -168.539537914766     IErMin= 9 ErrMin= 2.05D-05
 ErrMax= 2.05D-05 EMaxC= 1.00D-01 BMatC= 7.82D-08 BMatP= 7.63D-07
 IDIUse=1 WtCom= 1.00D+00 WtEn= 0.00D+00
 Coeff-Com: -0.206D-03-0.259D-03 0.168D-02 0.441D-02 0.111D-01-0.217D-02
 Coeff-Com: -0.148D+00-0.274D-01 0.116D+01
 Coeff:     -0.206D-03-0.259D-03 0.168D-02 0.441D-02 0.111D-01-0.217D-02
 Coeff:     -0.148D+00-0.274D-01 0.116D+01
 Gap=     0.185 Goal=   None    Shift=    0.000
 Gap=     0.144 Goal=   None    Shift=    0.000
 RMSDP=1.82D-05 MaxDP=2.29D-04 DE=-1.25D-06 OVMax= 1.04D-03

 Cycle  10  Pass 0  IDiag  1:
 E= -168.539538102290     Delta-E=       -0.000000187524 Rises=F Damp=F
 DIIS: error= 1.08D-05 at cycle  10 NSaved=  10.
 NSaved=10 IEnMin=10 EnMin= -168.539538102290     IErMin=10 ErrMin= 1.08D-05
 ErrMax= 1.08D-05 EMaxC= 1.00D-01 BMatC= 1.39D-08 BMatP= 7.82D-08
 IDIUse=1 WtCom= 1.00D+00 WtEn= 0.00D+00
 Coeff-Com: -0.535D-04 0.172D-03-0.216D-02-0.488D-02-0.361D-02 0.333D-01
 Coeff-Com:  0.959D-01-0.308D+00-0.257D+00 0.145D+01
 Coeff:     -0.535D-04 0.172D-03-0.216D-02-0.488D-02-0.361D-02 0.333D-01
 Coeff:      0.959D-01-0.308D+00-0.257D+00 0.145D+01
 Gap=     0.185 Goal=   None    Shift=    0.000
 Gap=     0.144 Goal=   None    Shift=    0.000
 RMSDP=1.07D-05 MaxDP=1.27D-04 DE=-1.88D-07 OVMax= 6.25D-04

 Cycle  11  Pass 0  IDiag  1:
 E= -168.539538146440     Delta-E=       -0.000000044151 Rises=F Damp=F
 DIIS: error= 3.22D-06 at cycle  11 NSaved=  11.
 NSaved=11 IEnMin=11 EnMin= -168.539538146440     IErMin=11 ErrMin= 3.22D-06
 ErrMax= 3.22D-06 EMaxC= 1.00D-01 BMatC= 2.08D-09 BMatP= 1.39D-08
 IDIUse=1 WtCom= 1.00D+00 WtEn= 0.00D+00
 Coeff-Com:  0.592D-05 0.329D-04 0.497D-03 0.121D-02 0.806D-04-0.105D-01
 Coeff-Com: -0.165D-01 0.109D+00-0.115D-01-0.571D+00 0.150D+01
 Coeff:      0.592D-05 0.329D-04 0.497D-03 0.121D-02 0.806D-04-0.105D-01
 Coeff:     -0.165D-01 0.109D+00-0.115D-01-0.571D+00 0.150D+01
 Gap=     0.185 Goal=   None    Shift=    0.000
 Gap=     0.144 Goal=   None    Shift=    0.000
 RMSDP=3.00D-06 MaxDP=4.78D-05 DE=-4.42D-08 OVMax= 1.66D-04

 Initial convergence to 1.0D-05 achieved.  Increase integral accuracy.
 Cycle  12  Pass 1  IDiag  1:
 E= -168.539532092265     Delta-E=        0.000006054175 Rises=F Damp=F
 DIIS: error= 4.41D-06 at cycle   1 NSaved=   1.
 NSaved= 1 IEnMin= 1 EnMin= -168.539532092265     IErMin= 1 ErrMin= 4.41D-06
 ErrMax= 4.41D-06 EMaxC= 1.00D-01 BMatC= 5.48D-09 BMatP= 5.48D-09
 IDIUse=1 WtCom= 1.00D+00 WtEn= 0.00D+00
 Coeff-Com:  0.100D+01
 Coeff:      0.100D+01
 Gap=     0.185 Goal=   None    Shift=    0.000
 Gap=     0.144 Goal=   None    Shift=    0.000
 RMSDP=3.00D-06 MaxDP=4.78D-05 DE= 6.05D-06 OVMax= 3.50D-05

 Cycle  13  Pass 1  IDiag  1:
 E= -168.539532094471     Delta-E=       -0.000000002205 Rises=F Damp=F
 DIIS: error= 6.79D-07 at cycle   2 NSaved=   2.
 NSaved= 2 IEnMin= 2 EnMin= -168.539532094471     IErMin= 2 ErrMin= 6.79D-07
 ErrMax= 6.79D-07 EMaxC= 1.00D-01 BMatC= 1.47D-10 BMatP= 5.48D-09
 IDIUse=1 WtCom= 1.00D+00 WtEn= 0.00D+00
 Coeff-Com: -0.295D-01 0.103D+01
 Coeff:     -0.295D-01 0.103D+01
 Gap=     0.185 Goal=   None    Shift=    0.000
 Gap=     0.144 Goal=   None    Shift=    0.000
 RMSDP=4.74D-07 MaxDP=6.67D-06 DE=-2.21D-09 OVMax= 1.60D-05

 Cycle  14  Pass 1  IDiag  1:
 E= -168.539532094591     Delta-E=       -0.000000000120 Rises=F Damp=F
 DIIS: error= 4.91D-07 at cycle   3 NSaved=   3.
 NSaved= 3 IEnMin= 3 EnMin= -168.539532094591     IErMin= 3 ErrMin= 4.91D-07
 ErrMax= 4.91D-07 EMaxC= 1.00D-01 BMatC= 1.01D-10 BMatP= 1.47D-10
 IDIUse=1 WtCom= 1.00D+00 WtEn= 0.00D+00
 Coeff-Com: -0.336D-01 0.455D+00 0.579D+00
 Coeff:     -0.336D-01 0.455D+00 0.579D+00
 Gap=     0.185 Goal=   None    Shift=    0.000
 Gap=     0.144 Goal=   None    Shift=    0.000
 RMSDP=1.65D-07 MaxDP=1.76D-06 DE=-1.20D-10 OVMax= 6.96D-06

 Cycle  15  Pass 1  IDiag  1:
 E= -168.539532094626     Delta-E=       -0.000000000035 Rises=F Damp=F
 DIIS: error= 5.91D-07 at cycle   4 NSaved=   4.
 NSaved= 4 IEnMin= 4 EnMin= -168.539532094626     IErMin= 3 ErrMin= 4.91D-07
 ErrMax= 5.91D-07 EMaxC= 1.00D-01 BMatC= 4.98D-11 BMatP= 1.01D-10
 IDIUse=1 WtCom= 1.00D+00 WtEn= 0.00D+00
 Coeff-Com: -0.110D-01 0.446D-01 0.386D+00 0.580D+00
 Coeff:     -0.110D-01 0.446D-01 0.386D+00 0.580D+00
 Gap=     0.185 Goal=   None    Shift=    0.000
 Gap=     0.144 Goal=   None    Shift=    0.000
 RMSDP=1.36D-07 MaxDP=2.54D-06 DE=-3.51D-11 OVMax= 5.77D-06

 Cycle  16  Pass 1  IDiag  1:
 E= -168.539532094652     Delta-E=       -0.000000000026 Rises=F Damp=F
 DIIS: error= 2.78D-07 at cycle   5 NSaved=   5.
 NSaved= 5 IEnMin= 5 EnMin= -168.539532094652     IErMin= 5 ErrMin= 2.78D-07
 ErrMax= 2.78D-07 EMaxC= 1.00D-01 BMatC= 2.34D-11 BMatP= 4.98D-11
 IDIUse=1 WtCom= 1.00D+00 WtEn= 0.00D+00
 Coeff-Com: -0.307D-03-0.108D+00 0.329D-01 0.450D+00 0.625D+00
 Coeff:     -0.307D-03-0.108D+00 0.329D-01 0.450D+00 0.625D+00
 Gap=     0.185 Goal=   None    Shift=    0.000
 Gap=     0.144 Goal=   None    Shift=    0.000
 RMSDP=1.08D-07 MaxDP=1.23D-06 DE=-2.57D-11 OVMax= 6.15D-06

 Cycle  17  Pass 1  IDiag  1:
 E= -168.539532094667     Delta-E=       -0.000000000015 Rises=F Damp=F
 DIIS: error= 1.79D-07 at cycle   6 NSaved=   6.
 NSaved= 6 IEnMin= 6 EnMin= -168.539532094667     IErMin= 6 ErrMin= 1.79D-07
 ErrMax= 1.79D-07 EMaxC= 1.00D-01 BMatC= 8.24D-12 BMatP= 2.34D-11
 IDIUse=1 WtCom= 1.00D+00 WtEn= 0.00D+00
 Coeff-Com:  0.944D-02-0.134D+00-0.297D+00 0.657D-02 0.499D+00 0.915D+00
 Coeff:      0.944D-02-0.134D+00-0.297D+00 0.657D-02 0.499D+00 0.915D+00
 Gap=     0.185 Goal=   None    Shift=    0.000
 Gap=     0.144 Goal=   None    Shift=    0.000
 RMSDP=1.45D-07 MaxDP=2.10D-06 DE=-1.52D-11 OVMax= 8.51D-06

 Cycle  18  Pass 1  IDiag  1:
 E= -168.539532094677     Delta-E=       -0.000000000011 Rises=F Damp=F
 DIIS: error= 5.15D-08 at cycle   7 NSaved=   7.
 NSaved= 7 IEnMin= 7 EnMin= -168.539532094677     IErMin= 7 ErrMin= 5.15D-08
 ErrMax= 5.15D-08 EMaxC= 1.00D-01 BMatC= 5.51D-13 BMatP= 8.24D-12
 IDIUse=1 WtCom= 1.00D+00 WtEn= 0.00D+00
 Coeff-Com:  0.347D-03 0.138D-01-0.540D-01-0.950D-01-0.456D-01 0.101D+00
 Coeff-Com:  0.108D+01
 Coeff:      0.347D-03 0.138D-01-0.540D-01-0.950D-01-0.456D-01 0.101D+00
 Coeff:      0.108D+01
 Gap=     0.185 Goal=   None    Shift=    0.000
 Gap=     0.144 Goal=   None    Shift=    0.000
 RMSDP=5.44D-08 MaxDP=6.27D-07 DE=-1.05D-11 OVMax= 3.21D-06

 Cycle  19  Pass 1  IDiag  1:
 E= -168.539532094679     Delta-E=       -0.000000000002 Rises=F Damp=F
 DIIS: error= 2.13D-08 at cycle   8 NSaved=   8.
 NSaved= 8 IEnMin= 8 EnMin= -168.539532094679     IErMin= 8 ErrMin= 2.13D-08
 ErrMax= 2.13D-08 EMaxC= 1.00D-01 BMatC= 1.39D-13 BMatP= 5.51D-13
 IDIUse=1 WtCom= 1.00D+00 WtEn= 0.00D+00
 Coeff-Com: -0.155D-02 0.239D-01 0.391D-01-0.359D-01-0.393D-01-0.130D+00
 Coeff-Com:  0.699D-01 0.107D+01
 Coeff:     -0.155D-02 0.239D-01 0.391D-01-0.359D-01-0.393D-01-0.130D+00
 Coeff:      0.699D-01 0.107D+01
 Gap=     0.185 Goal=   None    Shift=    0.000
 Gap=     0.144 Goal=   None    Shift=    0.000
 RMSDP=1.88D-08 MaxDP=1.92D-07 DE=-1.53D-12 OVMax= 9.15D-07

 Cycle  20  Pass 1  IDiag  1:
 E= -168.539532094679     Delta-E=        0.000000000000 Rises=F Damp=F
 DIIS: error= 8.52D-09 at cycle   9 NSaved=   9.
 NSaved= 9 IEnMin= 9 EnMin= -168.539532094679     IErMin= 9 ErrMin= 8.52D-09
 ErrMax= 8.52D-09 EMaxC= 1.00D-01 BMatC= 2.71D-14 BMatP= 1.39D-13
 IDIUse=1 WtCom= 1.00D+00 WtEn= 0.00D+00
 Coeff-Com: -0.698D-04-0.152D-02 0.797D-02 0.436D-02 0.324D-01-0.229D-01
 Coeff-Com: -0.230D+00 0.146D+00 0.106D+01
 Coeff:     -0.698D-04-0.152D-02 0.797D-02 0.436D-02 0.324D-01-0.229D-01
 Coeff:     -0.230D+00 0.146D+00 0.106D+01
 Gap=     0.185 Goal=   None    Shift=    0.000
 Gap=     0.144 Goal=   None    Shift=    0.000
 RMSDP=7.44D-09 MaxDP=7.64D-08 DE=-3.41D-13 OVMax= 3.10D-07

 SCF Done:  E(UB3LYP) =  -168.539532095     A.U. after   20 cycles
             Convg  =    0.7440D-08             -V/T =  2.0093
 <Sx>= 0.0000 <Sy>= 0.0000 <Sz>= 1.0000 <S**2>= 2.0140 S= 1.0047
 <L.S>= 0.000000000000E+00
 KE= 1.669940283950D+02 PE=-5.063116427506D+02 EE= 1.149961261876D+02
 Annihilation of the first spin contaminant:
 S**2 before annihilation     2.0140,   after     2.0001
 Leave Link  502 at Fri Sep 13 02:47:33 2019, MaxMem=  131072000 cpu:      15.0
 (Enter C:\G09W\l801.exe)
 ExpMin= 1.61D-01 ExpMax= 5.48D+03 ExpMxC= 8.25D+02 IAcc=3 IRadAn=         5 AccDes= 0.00D+00
 HarFok:  IExCor=  205 AccDes= 0.00D+00 IRadAn=         5 IDoV=-2
 ScaDFX=  1.000000  1.000000  1.000000  1.000000
 Largest valence mixing into a core orbital is  6.67D-05
 Largest core mixing into a valence orbital is  1.13D-05
 Largest valence mixing into a core orbital is  7.51D-05
 Largest core mixing into a valence orbital is  1.39D-05
 Range of M.O.s used for correlation:     4    47
 NBasis=    47 NAE=    12 NBE=    10 NFC=     3 NFV=     0
 NROrb=     44 NOA=     9 NOB=     7 NVA=    35 NVB=    37
 Leave Link  801 at Fri Sep 13 02:47:34 2019, MaxMem=  131072000 cpu:       1.0
 (Enter C:\G09W\l914.exe)
 UHF ground state
 MDV=   131072000 DFT=T DoStab=F Mixed=T DoRPA=T DoScal=F NonHer=T
 Keep R1, R2, and R3 ints in memory in canonical form, NReq=3225385.
 Symmetry not used in FoFDir.
 MinBra= 0 MaxBra= 2 Meth= 1.
 IRaf=       0 NMat=   1 IRICut=       1 DoRegI=T DoRafI=F ISym2E= 0 JSym2E=0.
 Making orbital integer symmetry assigments:
 Orbital symmetries:
 Alpha Orbitals:
       Occupied  (A) (A) (A) (A) (A) (A) (A) (A) (A) (A) (A) (A)
       Virtual   (A) (A) (A) (A) (A) (A) (A) (A) (A) (A) (A) (A)
                 (A) (A) (A) (A) (A) (A) (A) (A) (A) (A) (A) (A)
                 (A) (A) (A) (A) (A) (A) (A) (A) (A) (A) (A)
 Beta  Orbitals:
       Occupied  (A) (A) (A) (A) (A) (A) (A) (A) (A) (A)
       Virtual   (A) (A) (A) (A) (A) (A) (A) (A) (A) (A) (A) (A)
                 (A) (A) (A) (A) (A) (A) (A) (A) (A) (A) (A) (A)
                 (A) (A) (A) (A) (A) (A) (A) (A) (A) (A) (A) (A)
                 (A)
    12 initial guesses have been made.
 Convergence on wavefunction:    0.000001000000000
 Davidson Disk Diagonalization:  ConvIn= 1.00D-06 SkipCon=T Conv= 1.00D-06.
 Max sub-space:   200 roots to seek:    12 dimension of matrix:    574
 Iteration     1 Dimension    12 NMult    12
 Cannot handle 2e integral symmetry, ISym2E=1.
 CISAX:  IP=  1 NPass=   1 NMax=    12.
 CISAX will form    12 AO SS matrices at one time.
 NMat=    12 NSing=    12.
 Cannot handle 2e integral symmetry, ISym2E=1.
 CISAX:  IP=  1 NPass=   1 NMax=    12.
 CISAX will form    12 AO SS matrices at one time.
 NMat=    12 NSing=    12.
 Excitation Energies [eV] at current iteration:
 Root      1 :     1.750359294837341
 Root      2 :     2.955438711122401
 Root      3 :     3.661975265546440
 Iteration     2 Dimension    18 NMult    18
 Cannot handle 2e integral symmetry, ISym2E=1.
 CISAX:  IP=  1 NPass=   1 NMax=     6.
 CISAX will form     6 AO SS matrices at one time.
 NMat=     6 NSing=     6.
 Cannot handle 2e integral symmetry, ISym2E=1.
 CISAX:  IP=  1 NPass=   1 NMax=     6.
 CISAX will form     6 AO SS matrices at one time.
 NMat=     6 NSing=     6.
 Root      1 not converged, maximum delta is    0.066986517723180
 Root      2 not converged, maximum delta is    0.056254708418761
 Root      3 not converged, maximum delta is    0.130337682971448
 Excitation Energies [eV] at current iteration:
 Root      1 :     1.590036011798109   Change is   -0.160323283039232
 Root      2 :     2.809982020561335   Change is   -0.145456690561066
 Root      3 :     3.518020577292803   Change is   -0.143954688253638
 Iteration     3 Dimension    24 NMult    24
 Cannot handle 2e integral symmetry, ISym2E=1.
 CISAX:  IP=  1 NPass=   1 NMax=     6.
 CISAX will form     6 AO SS matrices at one time.
 NMat=     6 NSing=     6.
 Cannot handle 2e integral symmetry, ISym2E=1.
 CISAX:  IP=  1 NPass=   1 NMax=     6.
 CISAX will form     6 AO SS matrices at one time.
 NMat=     6 NSing=     6.
 Root      1 not converged, maximum delta is    0.016863359011534
 Root      2 not converged, maximum delta is    0.013404156156127
 Root      3 not converged, maximum delta is    0.015099704348818
 Excitation Energies [eV] at current iteration:
 Root      1 :     1.579287036161235   Change is   -0.010748975636873
 Root      2 :     2.798376820328772   Change is   -0.011605200232563
 Root      3 :     3.506099778282742   Change is   -0.011920799010061
 Iteration     4 Dimension    30 NMult    30
 Cannot handle 2e integral symmetry, ISym2E=1.
 CISAX:  IP=  1 NPass=   1 NMax=     6.
 CISAX will form     6 AO SS matrices at one time.
 NMat=     6 NSing=     6.
 Cannot handle 2e integral symmetry, ISym2E=1.
 CISAX:  IP=  1 NPass=   1 NMax=     6.
 CISAX will form     6 AO SS matrices at one time.
 NMat=     6 NSing=     6.
 Root      1 not converged, maximum delta is    0.002841175772663
 Root      2 not converged, maximum delta is    0.004722380426099
 Root      3 not converged, maximum delta is    0.008910785896105
 Excitation Energies [eV] at current iteration:
 Root      1 :     1.578836990122071   Change is   -0.000450046039164
 Root      2 :     2.797822121305478   Change is   -0.000554699023294
 Root      3 :     3.504817134463031   Change is   -0.001282643819711
 Iteration     5 Dimension    36 NMult    36
 Cannot handle 2e integral symmetry, ISym2E=1.
 CISAX:  IP=  1 NPass=   1 NMax=     6.
 CISAX will form     6 AO SS matrices at one time.
 NMat=     6 NSing=     6.
 Cannot handle 2e integral symmetry, ISym2E=1.
 CISAX:  IP=  1 NPass=   1 NMax=     6.
 CISAX will form     6 AO SS matrices at one time.
 NMat=     6 NSing=     6.
 Root      1 not converged, maximum delta is    0.000573425466606
 Root      2 not converged, maximum delta is    0.000481246671284
 Root      3 not converged, maximum delta is    0.002891895221134
 Excitation Energies [eV] at current iteration:
 Root      1 :     1.578799289301236   Change is   -0.000037700820835
 Root      2 :     2.797799325505997   Change is   -0.000022795799481
 Root      3 :     3.504741456891659   Change is   -0.000075677571372
 Iteration     6 Dimension    42 NMult    42
 Cannot handle 2e integral symmetry, ISym2E=1.
 CISAX:  IP=  1 NPass=   1 NMax=     6.
 CISAX will form     6 AO SS matrices at one time.
 NMat=     6 NSing=     6.
 Cannot handle 2e integral symmetry, ISym2E=1.
 CISAX:  IP=  1 NPass=   1 NMax=     6.
 CISAX will form     6 AO SS matrices at one time.
 NMat=     6 NSing=     6.
 Root      1 not converged, maximum delta is    0.000083142387314
 Root      2 not converged, maximum delta is    0.000062618114802
 Root      3 not converged, maximum delta is    0.000246200613037
 Excitation Energies [eV] at current iteration:
 Root      1 :     1.578797941353908   Change is   -0.000001347947328
 Root      2 :     2.797798356782141   Change is   -0.000000968723856
 Root      3 :     3.504738078963335   Change is   -0.000003377928324
 Iteration     7 Dimension    48 NMult    48
 Cannot handle 2e integral symmetry, ISym2E=1.
 CISAX:  IP=  1 NPass=   1 NMax=     6.
 CISAX will form     6 AO SS matrices at one time.
 NMat=     6 NSing=     6.
 Cannot handle 2e integral symmetry, ISym2E=1.
 CISAX:  IP=  1 NPass=   1 NMax=     6.
 CISAX will form     6 AO SS matrices at one time.
 NMat=     6 NSing=     6.
 Root      1 not converged, maximum delta is    0.000020043363166
 Root      2 not converged, maximum delta is    0.000014040469648
 Root      3 not converged, maximum delta is    0.000022083681884
 Excitation Energies [eV] at current iteration:
 Root      1 :     1.578797866650269   Change is   -0.000000074703639
 Root      2 :     2.797798319579522   Change is   -0.000000037202619
 Root      3 :     3.504737987497506   Change is   -0.000000091465829
 Iteration     8 Dimension    54 NMult    54
 Cannot handle 2e integral symmetry, ISym2E=1.
 CISAX:  IP=  1 NPass=   1 NMax=     6.
 CISAX will form     6 AO SS matrices at one time.
 NMat=     6 NSing=     6.
 Cannot handle 2e integral symmetry, ISym2E=1.
 CISAX:  IP=  1 NPass=   1 NMax=     6.
 CISAX will form     6 AO SS matrices at one time.
 NMat=     6 NSing=     6.
 Root      1 not converged, maximum delta is    0.000003162082786
 Root      2 not converged, maximum delta is    0.000003258225916
 Root      3 not converged, maximum delta is    0.000003941934440
 Excitation Energies [eV] at current iteration:
 Root      1 :     1.578797864493434   Change is   -0.000000002156835
 Root      2 :     2.797798318184038   Change is   -0.000000001395484
 Root      3 :     3.504737985273381   Change is   -0.000000002224125
 Iteration     9 Dimension    60 NMult    60
 Cannot handle 2e integral symmetry, ISym2E=1.
 CISAX:  IP=  1 NPass=   1 NMax=     6.
 CISAX will form     6 AO SS matrices at one time.
 NMat=     6 NSing=     6.
 Cannot handle 2e integral symmetry, ISym2E=1.
 CISAX:  IP=  1 NPass=   1 NMax=     6.
 CISAX will form     6 AO SS matrices at one time.
 NMat=     6 NSing=     6.
 Root      1 has converged.
 Root      2 has converged.
 Root      3 has converged.
 Excitation Energies [eV] at current iteration:
 Root      1 :     1.578797864437032   Change is   -0.000000000056401
 Root      2 :     2.797798318133899   Change is   -0.000000000050140
 Root      3 :     3.504737985228495   Change is   -0.000000000044886
 Convergence achieved on expansion vectors.
 ***********************************************************************
 Excited states from <AA,BB:AA,BB> singles matrix:
 ***********************************************************************
 
 ExtSpn:  IState=     1 X2= 1.007 Y2= 0.007 X2-Y2-1= 4.44D-16
          S2Grnd=  2.014 Ra=  0.001 Rb=  0.013 T= -0.002 S2Ext=  0.011 S2=  2.025
 ExtSpn:  IState=     2 X2= 1.004 Y2= 0.004 X2-Y2-1=-7.77D-16
          S2Grnd=  2.014 Ra= -0.003 Rb=  0.005 T=  0.000 S2Ext=  0.003 S2=  2.017
 ExtSpn:  IState=     3 X2= 1.004 Y2= 0.004 X2-Y2-1=-3.33D-16
          S2Grnd=  2.014 Ra=  0.001 Rb=  0.031 T=  0.005 S2Ext=  0.037 S2=  2.051
 1PDM for each excited state written to RWF  633
 Ground to excited state transition densities written to RWF  633
 Ground to excited state transition electric dipole moments (Au):
       state          X           Y           Z        Dip. S.      Osc.
         1        -0.0562      0.0404     -0.1536      0.0284      0.0011
         2         0.0760     -0.0157     -0.2001      0.0461      0.0032
         3         0.2618      0.0309     -0.0492      0.0719      0.0062
 Ground to excited state transition velocity dipole moments (Au):
       state          X           Y           Z        Dip. S.      Osc.
         1         0.0081     -0.0049      0.0339      0.0012      0.0142
         2        -0.0090      0.0062      0.0223      0.0006      0.0040
         3        -0.0295     -0.0088      0.0145      0.0012      0.0060
 Ground to excited state transition magnetic dipole moments (Au):
       state          X           Y           Z
         1        -0.8022      0.2042      0.1179
         2         0.9067     -0.1262      0.0159
         3        -0.3970      0.0208      0.1265
 Ground to excited state transition velocity quadrupole moments (Au):
       state          XX          YY          ZZ          XY          XZ          YZ
         1        -0.0276      0.0151     -0.0094      0.0156     -0.0727     -0.0143
         2         0.0009      0.0137     -0.0204     -0.0106      0.0248      0.0538
         3        -0.0619      0.0187      0.0141     -0.0018     -0.0492     -0.0509
 <0|del|b> * <b|rxdel|0> + <0|del|b> * <b|delr+rdel|0>
 Rotatory Strengths (R) in cgs (10**-40 erg-esu-cm/Gauss)
       state          XX          YY          ZZ    R(velocity)
         1        19.3752    -19.0715    -42.7043    -14.1336
         2        -2.8394    -27.7122    -28.5867    -19.7128
         3         3.2791     41.3466     28.6891     24.4383
 1/2[<0|r|b>*<b|rxdel|0> + (<0|rxdel|b>*<b|r|0>)*]
 Rotatory Strengths (R) in cgs (10**-40 erg-esu-cm/Gauss)
       state          XX          YY          ZZ     R(length)
         1       -31.8784     -5.8368     12.8046     -8.3036
         2       -48.7186     -1.4041      2.2435    -15.9598
         3        73.5136     -0.4540      4.4046     25.8214
  1/2[<0|del|b>*<b|r|0> + (<0|r|b>*<b|del|0>)*] (Au)
       state          X           Y           Z        Dip. S.   Osc.(frdel)
         1        -0.0005     -0.0002     -0.0052      0.0059      0.0039
         2        -0.0007     -0.0001     -0.0045      0.0052      0.0035
         3        -0.0077     -0.0003     -0.0007      0.0087      0.0058

 Excitation energies and oscillator strengths:
 
 Excited State   1:  3.017-A      1.5788 eV  785.31 nm  f=0.0011  <S**2>=2.025
     10B -> 11B        0.99095
 This state for optimization and/or second-order correction.
 Total Energy, E(TD-HF/TD-KS) =  -168.481512338    
 Copying the excited state density for this state as the 1-particle RhoCI density.
 
 Excited State   2:  3.011-A      2.7978 eV  443.15 nm  f=0.0032  <S**2>=2.017
     12A -> 13A        0.97911
      9B -> 11B        0.15634
 
 Excited State   3:  3.034-A      3.5047 eV  353.76 nm  f=0.0062  <S**2>=2.051
     12A -> 13A       -0.16834
      8B -> 11B       -0.50429
      9B -> 11B        0.82716
     10B -> 13B       -0.12649
 SavETr:  write IOETrn=   770 NScale= 10 NData=  16 NLR=1 LETran=      62.
 The state does not have a specific multiplicity.
 Cannot handle 2e integral symmetry, ISym2E=1.
 CISAX:  IP=  1 NPass=   1 NMax=     1.
 CISAX will form     1 AO SS matrices at one time.
 NMat=     1 NSing=     1.
 Cannot handle 2e integral symmetry, ISym2E=1.
 CISAX:  IP=  1 NPass=   1 NMax=     1.
 CISAX will form     1 AO SS matrices at one time.
 NMat=     1 NSing=     1.
 Leave Link  914 at Fri Sep 13 02:48:28 2019, MaxMem=  131072000 cpu:      54.0
 (Enter C:\G09W\l1002.exe)
 Minotr:  UHF open shell wavefunction.
          Computing CIS/TD-HF/TD-KS derivatives.
          Using Z-Vector for PSCF gradient.
          Skipping F1 and S1 gradient terms here.
          IDoAtm=1111
          Frozen-core window.
          Direct CPHF calculation.
          Differentiating once with respect to electric field.
                with respect to dipole field.
          Differentiating once with respect to nuclear coordinates.
          Requested convergence is 1.0D-10 RMS, and 1.0D-09 maximum.
          NewPWx=F KeepS1=T KeepF1=T KeepIn=T MapXYZ=F SortEE=F KeepMc=T.
          MDV=     131071968 using IRadAn=       0.
 Generate precomputed XC quadrature information.
          Keep R1 and R2 ints in memory in canonical form, NReq=2095059.
 Symmetry not used in FoFDir.
 MinBra= 0 MaxBra= 2 Meth= 1.
 IRaf=       0 NMat=   1 IRICut=       1 DoRegI=T DoRafI=F ISym2E= 0 JSym2E=0.
          Solving linear equations separately, MaxMat=       0.
          There are     1 degrees of freedom in the 1st order CPHF.  IDoFFX=0.
 LinEq1:  Iter=  0 NonCon=     1 RMS=1.21D-02 Max=1.61D-01
 AX will form     1 AO Fock derivatives at one time.
 LinEq1:  Iter=  1 NonCon=     1 RMS=1.85D-02 Max=2.40D-01
 LinEq1:  Iter=  2 NonCon=     1 RMS=6.16D-03 Max=5.00D-02
 LinEq1:  Iter=  3 NonCon=     1 RMS=2.56D-03 Max=2.79D-02
 LinEq1:  Iter=  4 NonCon=     1 RMS=2.41D-03 Max=2.50D-02
 LinEq1:  Iter=  5 NonCon=     1 RMS=1.15D-03 Max=1.43D-02
 LinEq1:  Iter=  6 NonCon=     1 RMS=5.15D-04 Max=6.31D-03
 LinEq1:  Iter=  7 NonCon=     1 RMS=2.18D-04 Max=2.00D-03
 LinEq1:  Iter=  8 NonCon=     1 RMS=6.81D-05 Max=4.97D-04
 LinEq1:  Iter=  9 NonCon=     1 RMS=2.17D-05 Max=1.71D-04
 LinEq1:  Iter= 10 NonCon=     1 RMS=8.03D-06 Max=7.91D-05
 LinEq1:  Iter= 11 NonCon=     1 RMS=1.79D-06 Max=1.88D-05
 LinEq1:  Iter= 12 NonCon=     1 RMS=4.79D-07 Max=3.48D-06
 LinEq1:  Iter= 13 NonCon=     1 RMS=1.39D-07 Max=1.44D-06
 LinEq1:  Iter= 14 NonCon=     1 RMS=3.21D-08 Max=2.85D-07
 LinEq1:  Iter= 15 NonCon=     1 RMS=7.63D-09 Max=7.37D-08
 LinEq1:  Iter= 16 NonCon=     1 RMS=1.65D-09 Max=2.00D-08
 LinEq1:  Iter= 17 NonCon=     1 RMS=4.39D-10 Max=3.08D-09
 LinEq1:  Iter= 18 NonCon=     1 RMS=1.19D-10 Max=9.99D-10
 LinEq1:  Iter= 19 NonCon=     0 RMS=2.10D-11 Max=1.26D-10
 Linear equations converged to 1.000D-10 1.000D-09 after    19 iterations.
 End of Minotr Frequency-dependent properties file   721 does not exist.
 End of Minotr Frequency-dependent properties file   722 does not exist.
 Leave Link 1002 at Fri Sep 13 02:48:57 2019, MaxMem=  131072000 cpu:      29.0
 (Enter C:\G09W\l601.exe)
 Copying SCF densities to generalized density rwf, IOpCl= 1 IROHF=0.

 **********************************************************************

            Population analysis using the SCF density.

 **********************************************************************

 Orbital symmetries:
 Alpha Orbitals:
       Occupied  (A) (A) (A) (A) (A) (A) (A) (A) (A) (A) (A) (A)
       Virtual   (A) (A) (A) (A) (A) (A) (A) (A) (A) (A) (A) (A)
                 (A) (A) (A) (A) (A) (A) (A) (A) (A) (A) (A) (A)
                 (A) (A) (A) (A) (A) (A) (A) (A) (A) (A) (A)
 Beta  Orbitals:
       Occupied  (A) (A) (A) (A) (A) (A) (A) (A) (A) (A)
       Virtual   (A) (A) (A) (A) (A) (A) (A) (A) (A) (A) (A) (A)
                 (A) (A) (A) (A) (A) (A) (A) (A) (A) (A) (A) (A)
                 (A) (A) (A) (A) (A) (A) (A) (A) (A) (A) (A) (A)
                 (A)
 The electronic state is 3-A.
 Alpha  occ. eigenvalues --  -19.22558 -14.42631 -10.31032  -1.09681  -0.94554
 Alpha  occ. eigenvalues --   -0.59774  -0.51026  -0.46618  -0.45046  -0.37734
 Alpha  occ. eigenvalues --   -0.35622  -0.20345
 Alpha virt. eigenvalues --   -0.01807   0.06059   0.24372   0.33326   0.51283
 Alpha virt. eigenvalues --    0.52271   0.56414   0.59903   0.67307   0.68538
 Alpha virt. eigenvalues --    0.77585   0.82942   0.87121   0.94318   0.95808
 Alpha virt. eigenvalues --    1.20345   1.34963   1.41101   1.45285   1.51341
 Alpha virt. eigenvalues --    1.63122   1.68906   1.74702   1.78781   1.97899
 Alpha virt. eigenvalues --    2.13149   2.26553   2.43396   2.52385   2.60849
 Alpha virt. eigenvalues --    2.79148   2.91752   3.60251   3.75063   4.10188
  Beta  occ. eigenvalues --  -19.21007 -14.40651 -10.30161  -1.06384  -0.89234
  Beta  occ. eigenvalues --   -0.57436  -0.47988  -0.41555  -0.39196  -0.33743
  Beta virt. eigenvalues --   -0.19391  -0.05280   0.02488   0.07410   0.26065
  Beta virt. eigenvalues --    0.35971   0.53136   0.54712   0.58088   0.62441
  Beta virt. eigenvalues --    0.70138   0.74630   0.79206   0.84397   0.88930
  Beta virt. eigenvalues --    0.97168   0.98729   1.23197   1.37606   1.43693
  Beta virt. eigenvalues --    1.48931   1.54813   1.67223   1.72570   1.78377
  Beta virt. eigenvalues --    1.82675   2.01980   2.16109   2.29599   2.47224
  Beta virt. eigenvalues --    2.56178   2.63164   2.81573   2.93752   3.64101
  Beta virt. eigenvalues --    3.77358   4.12822
          Condensed to atoms (all electrons):
              1          2          3          4
     1  H    0.424804   0.252985  -0.023875   0.002516
     2  N    0.252985   7.029820   0.148973  -0.033176
     3  C   -0.023875   0.148973   5.124190   0.411026
     4  O    0.002516  -0.033176   0.411026   7.904287
 Mulliken atomic charges:
              1
     1  H    0.343570
     2  N   -0.398603
     3  C    0.339685
     4  O   -0.284653
 Sum of Mulliken atomic charges =   0.00000
 Mulliken charges with hydrogens summed into heavy atoms:
              1
     2  N   -0.055032
     3  C    0.339685
     4  O   -0.284653
 Sum of Mulliken charges with hydrogens summed into heavy atoms =   0.00000
          Atomic-Atomic Spin Densities.
              1          2          3          4
     1  H   -0.024339   0.000221  -0.003644  -0.000016
     2  N    0.000221   1.170407  -0.223973   0.001090
     3  C   -0.003644  -0.223973   0.975106  -0.192471
     4  O   -0.000016   0.001090  -0.192471   0.716413
 Mulliken atomic spin densities:
              1
     1  H   -0.027777
     2  N    0.947745
     3  C    0.555018
     4  O    0.525015
 Sum of Mulliken atomic spin densities =   2.00000
 Electronic spatial extent (au):  <R**2>=            130.6685
 Charge=              0.0000 electrons
 Dipole moment (field-independent basis, Debye):
    X=             -2.0498    Y=              1.0977    Z=              0.5123  Tot=              2.3810
 Quadrupole moment (field-independent basis, Debye-Ang):
   XX=            -15.8140   YY=            -17.5503   ZZ=            -15.6612
   XY=             -2.3026   XZ=             -1.1546   YZ=              0.2101
 Traceless Quadrupole moment (field-independent basis, Debye-Ang):
   XX=              0.5279   YY=             -1.2085   ZZ=              0.6806
   XY=             -2.3026   XZ=             -1.1546   YZ=              0.2101
 Octapole moment (field-independent basis, Debye-Ang**2):
  XXX=             -5.1221  YYY=             -0.9224  ZZZ=              0.6675  XYY=              1.0130
  XXY=              4.1815  XXZ=              1.7556  XZZ=              0.7358  YZZ=             -0.1733
  YYZ=              0.6334  XYZ=             -0.2818
 Hexadecapole moment (field-independent basis, Debye-Ang**3):
 XXXX=           -106.7980 YYYY=            -23.2750 ZZZZ=            -13.4595 XXXY=             -8.7892
 XXXZ=             -3.9842 YYYX=             -2.7747 YYYZ=              0.3998 ZZZX=             -0.5134
 ZZZY=              0.2045 XXYY=            -23.1040 XXZZ=            -20.8874 YYZZ=             -5.9835
 XXYZ=              0.5452 YYXZ=             -0.5054 ZZXY=             -0.8324
 N-N= 5.578195607339D+01 E-N=-7.476705995275D+02  KE= 2.482348616162D+02
                          Isotropic Fermi Contact Couplings
        Atom                 a.u.       MegaHertz       Gauss      10(-4) cm-1
     1  H(1)               0.04180      93.42500      33.33636      31.16323
     2  N(14)              0.60923      98.42263      35.11964      32.83026
     3  C(13)              0.35955     202.10001      72.11431      67.41331
     4  O(17)              0.12425     -37.65923     -13.43775     -12.56177
 --------------------------------------------------------
       Center         ----  Spin Dipole Couplings  ----
                      3XX-RR        3YY-RR        3ZZ-RR
 --------------------------------------------------------
     1   Atom        0.058024     -0.006044     -0.051980
     2   Atom       -0.581376      0.963059     -0.381683
     3   Atom       -0.217570      0.667569     -0.449998
     4   Atom       -1.079570      2.144412     -1.064842
 --------------------------------------------------------
                        XY            XZ            YZ
 --------------------------------------------------------
     1   Atom       -0.064712     -0.046698      0.034704
     2   Atom        0.457094      0.019257      0.374899
     3   Atom        0.030164     -0.001537     -0.070385
     4   Atom        0.558447      0.337801      0.919158
 --------------------------------------------------------


 ---------------------------------------------------------------------------------
              Anisotropic Spin Dipole Couplings in Principal Axis System
 ---------------------------------------------------------------------------------

       Atom             a.u.   MegaHertz   Gauss  10(-4) cm-1        Axes

              Baa    -0.0726   -38.715   -13.814   -12.914  0.1784 -0.3131  0.9328
     1 H(1)   Bbb    -0.0454   -24.239    -8.649    -8.085  0.5743  0.8029  0.1597
              Bcc     0.1180    62.954    22.464    20.999  0.7990 -0.5072 -0.3231
 
              Baa    -0.7301   -28.158   -10.047    -9.392  0.9092 -0.3076  0.2808
     2 N(14)  Bbb    -0.4447   -17.151    -6.120    -5.721 -0.3349 -0.1394  0.9319
              Bcc     1.1748    45.308    16.167    15.113  0.2475  0.9412  0.2298
 
              Baa    -0.4544   -60.978   -21.758   -20.340 -0.0015  0.0626  0.9980
     3 C(13)  Bbb    -0.2186   -29.333   -10.467    -9.785  0.9994 -0.0337  0.0036
              Bcc     0.6730    90.311    32.225    30.125  0.0339  0.9975 -0.0626
 
              Baa    -1.4394   104.152    37.164    34.741 -0.5767 -0.1175  0.8085
     4 O(17)  Bbb    -1.0596    76.673    27.359    25.575  0.7985 -0.2904  0.5273
              Bcc     2.4990  -180.825   -64.523   -60.317  0.1729  0.9496  0.2613
 

 ---------------------------------------------------------------------------------

 No NMR shielding tensors so no spin-rotation constants.
 Leave Link  601 at Fri Sep 13 02:48:57 2019, MaxMem=  131072000 cpu:       0.0
 (Enter C:\G09W\l701.exe)
 Compute integral first derivatives.
 ... and contract with generalized density number  6.
 Leave Link  701 at Fri Sep 13 02:48:58 2019, MaxMem=  131072000 cpu:       0.0
 (Enter C:\G09W\l702.exe)
 L702 exits ... SP integral derivatives will be done elsewhere.
 Leave Link  702 at Fri Sep 13 02:48:58 2019, MaxMem=  131072000 cpu:       0.0
 (Enter C:\G09W\l703.exe)
 Compute integral first derivatives, UseDBF=F ICtDFT=           0.
 Integral derivatives from FoFDir, PRISM(SPDF).
 Calling FoFJK, ICntrl=      5127 FMM=F ISym2X=0 I1Cent= 0 IOpClX= 1 NMat=1 NMatS=1 NMatT=0.
 FoFCou: FMM=F IPFlag=           0 FMFlag=      100000 FMFlg1=         800
         NFxFlg=           0 DoJE=F BraDBF=F KetDBF=F FulRan=T
         Omega=  0.000000  0.000000  1.000000  0.000000  0.000000 ICntrl=    5127 IOpCl=  1
         NMat0=    1 NMatS0=    1 NMatT0=    0 NMatD0=    1 NMtDS0=    0 NMtDT0=    0
         I1Cent=           0 NGrid=           0.
 Symmetry not used in FoFCou.
 Leave Link  703 at Fri Sep 13 02:49:03 2019, MaxMem=  131072000 cpu:       4.0
 (Enter C:\G09W\l716.exe)
 Dipole        =-7.44575049D-01 2.76459334D-01 9.08252443D-02
 ***** Axes restored to original set *****
 -------------------------------------------------------------------
 Center     Atomic                   Forces (Hartrees/Bohr)
 Number     Number              X              Y              Z
 -------------------------------------------------------------------
      1        1          -0.026998470   -0.016056296    0.023933901
      2        7           0.083478772    0.018108834   -0.006890170
      3        6          -0.048485851   -0.000534773   -0.049754176
      4        8          -0.007994451   -0.001517765    0.032710444
 -------------------------------------------------------------------
 Cartesian Forces:  Max     0.083478772 RMS     0.035197648
 Leave Link  716 at Fri Sep 13 02:49:03 2019, MaxMem=  131072000 cpu:       0.0
 (Enter C:\G09W\l103.exe)

 GradGradGradGradGradGradGradGradGradGradGradGradGradGradGradGradGradGrad
 Berny optimization.
 Internal  Forces:  Max     0.058985660 RMS     0.041024837
 Search for a local minimum.
 Step number   1 out of a maximum of   20
 All quantities printed in internal units (Hartrees-Bohrs-Radians)
 RMS Force = .41025D-01 SwitMx=.10000D-02 MixMth= 1
 Mixed Optimization -- RFO/linear search
 Second derivative matrix not updated -- first step.
 The second derivative matrix:
                          R1        R2        R3        A1        A2
           R1           0.39779
           R2           0.00000   0.52419
           R3           0.00000   0.00000   0.89365
           A1           0.00000   0.00000   0.00000   0.16000
           A2           0.00000   0.00000   0.00000   0.00000   0.25000
           D1           0.00000   0.00000   0.00000   0.00000   0.00000
                          D1
           D1           0.02186
 ITU=  0
     Eigenvalues ---    0.02186   0.16000   0.25000   0.39779   0.52419
     Eigenvalues ---    0.89365
 RFO step:  Lambda=-4.24981540D-02 EMin= 2.18606085D-02
 Linear search not attempted -- first point.
 Maximum step size (   0.300) exceeded in Quadratic search.
    -- Step size scaled by   0.916
 Iteration  1 RMS(Cart)=  0.15784271 RMS(Int)=  0.09661218
 Iteration  2 RMS(Cart)=  0.08008293 RMS(Int)=  0.01015110
 Iteration  3 RMS(Cart)=  0.00874036 RMS(Int)=  0.00006848
 Iteration  4 RMS(Cart)=  0.00005622 RMS(Int)=  0.00000000
 Iteration  5 RMS(Cart)=  0.00000000 RMS(Int)=  0.00000000
 Variable       Old X    -DE/DX   Delta X   Delta X   Delta X     New X
                                 (Linear)    (Quad)   (Total)
    R1        1.98554  -0.02394   0.00000  -0.04978  -0.04978   1.93576
    R2        2.57501  -0.05899   0.00000  -0.09532  -0.09532   2.47969
    R3        2.33227   0.02199   0.00000   0.02151   0.02151   2.35378
    A1        1.88052   0.05362   0.00000   0.24247   0.24247   2.12298
    A2        2.34045  -0.04204   0.00000  -0.13161  -0.13161   2.20884
    D1        2.61799   0.03034   0.00000   0.43167   0.43167   3.04966
         Item               Value     Threshold  Converged?
 Maximum Force            0.058986     0.000450     NO 
 RMS     Force            0.041025     0.000300     NO 
 Maximum Displacement     0.244193     0.001800     NO 
 RMS     Displacement     0.227428     0.001200     NO 
 Predicted change in Energy=-2.693039D-02
 GradGradGradGradGradGradGradGradGradGradGradGradGradGradGradGradGradGrad

 Leave Link  103 at Fri Sep 13 02:49:03 2019, MaxMem=  131072000 cpu:       0.0
 (Enter C:\G09W\l202.exe)
                          Input orientation:                          
 ---------------------------------------------------------------------
 Center     Atomic      Atomic             Coordinates (Angstroms)
 Number     Number       Type             X           Y           Z
 ---------------------------------------------------------------------
      1          1           0       -0.129222   -0.098908    0.032622
      2          7           0        0.129059    0.106180    1.002438
      3          6           0        1.376329    0.058770    1.407317
      4          8           0        1.803461    0.377124    2.533212
 ---------------------------------------------------------------------
                    Distance matrix (angstroms):
                    1          2          3          4
     1  H    0.000000
     2  N    1.024360   0.000000
     3  C    2.044830   1.312195   0.000000
     4  O    3.196063   2.284798   1.245564   0.000000
 Stoichiometry    CHNO(3)
 Framework group  C1[X(CHNO)]
 Deg. of freedom     6
 Full point group                 C1      NOp   1
 RotChk:  IX=0 Diff= 1.40D-01
 Largest Abelian subgroup         C1      NOp   1
 Largest concise Abelian subgroup C1      NOp   1
                         Standard orientation:                         
 ---------------------------------------------------------------------
 Center     Atomic      Atomic             Coordinates (Angstroms)
 Number     Number       Type             X           Y           Z
 ---------------------------------------------------------------------
      1          1           0       -1.989694    0.288559    0.058633
      2          7           0       -1.105471   -0.224340   -0.007689
      3          6           0        0.051220    0.395272   -0.009297
      4          8           0        1.177584   -0.136226    0.006371
 ---------------------------------------------------------------------
 Rotational constants (GHZ):    170.9920001     11.6881121     10.9428765
 Leave Link  202 at Fri Sep 13 02:49:03 2019, MaxMem=  131072000 cpu:       0.0
 (Enter C:\G09W\l301.exe)
 Standard basis: 6-31G(d) (6D, 7F)
 Ernie: Thresh=  0.10000D-02 Tol=  0.10000D-05 Strict=F.
 There are    47 symmetry adapted basis functions of A   symmetry.
 Integral buffers will be    262144 words long.
 Raffenetti 2 integral format.
 Two-electron integral symmetry is turned on.
    47 basis functions,    88 primitive gaussians,    47 cartesian basis functions
    12 alpha electrons       10 beta electrons
       nuclear repulsion energy        56.7938679395 Hartrees.
 IExCor=  402 DFT=T Ex+Corr=B3LYP ExCW=0 ScaHFX=  0.200000
 ScaDFX=  0.800000  0.720000  1.000000  0.810000 ScalE2=  1.000000  1.000000
 IRadAn=      0 IRanWt=     -1 IRanGd=            0 ICorTp=0
 NAtoms=    4 NActive=    4 NUniq=    4 SFac= 1.00D+00 NAtFMM=   60 NAOKFM=F Big=F
 Leave Link  301 at Fri Sep 13 02:49:03 2019, MaxMem=  131072000 cpu:       0.0
 (Enter C:\G09W\l302.exe)
 NPDir=0 NMtPBC=     1 NCelOv=     1 NCel=       1 NClECP=     1 NCelD=      1
         NCelK=      1 NCelE2=     1 NClLst=     1 CellRange=     0.0.
 One-electron integrals computed using PRISM.
 NBasis=    47 RedAO= T  NBF=    47
 NBsUse=    47 1.00D-06 NBFU=    47
 Precomputing XC quadrature grid using
 IXCGrd= 2 IRadAn=           0 IRanWt=          -1 IRanGd=           0 AccXCQ= 0.00D+00.
 NRdTot=     245 NPtTot=       30846 NUsed=       32001 NTot=       32017
 NSgBfM=    47    47    47    47    47 NAtAll=     4     4.
 Leave Link  302 at Fri Sep 13 02:49:04 2019, MaxMem=  131072000 cpu:       0.0
 (Enter C:\G09W\l308.exe)
 Leave Link  308 at Fri Sep 13 02:49:04 2019, MaxMem=  131072000 cpu:       0.0
 (Enter C:\G09W\l303.exe)
 DipDrv:  MaxL=1.
 Leave Link  303 at Fri Sep 13 02:49:04 2019, MaxMem=  131072000 cpu:       0.0
 (Enter C:\G09W\l401.exe)
 Initial guess read from the read-write file.
 B after Tr=     0.000000    0.000000    0.000000
         Rot=    1.000000    0.000000    0.000000    0.000000 Ang=   0.00 deg.
 Guess basis will be translated and rotated to current coordinates.
 Initial guess orbital symmetries:
 Alpha Orbitals:
       Occupied  (A) (A) (A) (A) (A) (A) (A) (A) (A) (A) (A) (A)
       Virtual   (A) (A) (A) (A) (A) (A) (A) (A) (A) (A) (A) (A)
                 (A) (A) (A) (A) (A) (A) (A) (A) (A) (A) (A) (A)
                 (A) (A) (A) (A) (A) (A) (A) (A) (A) (A) (A)
 Beta  Orbitals:
       Occupied  (A) (A) (A) (A) (A) (A) (A) (A) (A) (A)
       Virtual   (A) (A) (A) (A) (A) (A) (A) (A) (A) (A) (A) (A)
                 (A) (A) (A) (A) (A) (A) (A) (A) (A) (A) (A) (A)
                 (A) (A) (A) (A) (A) (A) (A) (A) (A) (A) (A) (A)
                 (A)
 The electronic state of the initial guess is 3-A.
 Initial guess <Sx>= 0.0000 <Sy>= 0.0000 <Sz>= 1.0000 <S**2>= 2.0139 S= 1.0046
 Generating alternative initial guess.
 Harris functional with IExCor=  402 diagonalized for initial guess.
 ExpMin= 1.61D-01 ExpMax= 5.48D+03 ExpMxC= 8.25D+02 IAcc=1 IRadAn=         1 AccDes= 0.00D+00
 HarFok:  IExCor=  402 AccDes= 0.00D+00 IRadAn=         1 IDoV= 1
 ScaDFX=  1.000000  1.000000  1.000000  1.000000
 FoFCou: FMM=F IPFlag=           0 FMFlag=      100000 FMFlg1=           0
         NFxFlg=           0 DoJE=T BraDBF=F KetDBF=T FulRan=T
         Omega=  0.000000  0.000000  1.000000  0.000000  0.000000 ICntrl=     500 IOpCl=  0
         NMat0=    1 NMatS0=    1 NMatT0=    0 NMatD0=    1 NMtDS0=    0 NMtDT0=    0
         I1Cent=           4 NGrid=           0.
 Petite list used in FoFCou.
 Harris En= -168.480099330082    
 Leave Link  401 at Fri Sep 13 02:49:05 2019, MaxMem=  131072000 cpu:       1.0
 (Enter C:\G09W\l502.exe)
 UHF open shell SCF:
 Requested convergence on RMS density matrix=1.00D-08 within 999 cycles.
 Requested convergence on MAX density matrix=1.00D-06.
 Requested convergence on             energy=1.00D-06.
 No special actions if energy rises.
 Using DIIS extrapolation, IDIIS=  1040.
 Integral symmetry usage will be decided dynamically.
        31957 words used for storage of precomputed grid.
 Keep R1 and R2 ints in memory in canonical form, NReq=3176998.
 IEnd=     1043267 IEndB=     1043267 NGot=   131072000 MDV=   129757449
 LenX=   129757449 LenY=   129754799
 Symmetry not used in FoFDir.
 MinBra= 0 MaxBra= 2 Meth= 1.
 IRaf=       0 NMat=   1 IRICut=       1 DoRegI=T DoRafI=F ISym2E= 0 JSym2E=0.
 Integral accuracy reduced to 1.0D-05 until final iterations.

 Cycle   1  Pass 0  IDiag  1:
 E= -168.507732038767    
 DIIS: error= 1.13D-02 at cycle   1 NSaved=   1.
 NSaved= 1 IEnMin= 1 EnMin= -168.507732038767     IErMin= 1 ErrMin= 1.13D-02
 ErrMax= 1.13D-02 EMaxC= 1.00D-01 BMatC= 5.97D-02 BMatP= 5.97D-02
 IDIUse=3 WtCom= 8.87D-01 WtEn= 1.13D-01
 Coeff-Com:  0.100D+01
 Coeff-En:   0.100D+01
 Coeff:      0.100D+01
 Recover alternate guess density for next cycle.
 RMSDP=8.24D-03 MaxDP=6.43D-02              OVMax= 0.00D+00

 Cycle   2  Pass 0  IDiag  1:
 E= -168.502133609429     Delta-E=        0.005598429338 Rises=F Damp=F
 Switch densities from cycles 1 and 2 for lowest energy.
 DIIS: error= 2.98D-02 at cycle   2 NSaved=   2.
 NSaved= 2 IEnMin= 1 EnMin= -168.507732038767     IErMin= 1 ErrMin= 1.13D-02
 ErrMax= 2.98D-02 EMaxC= 1.00D+00 BMatC= 1.58D-01 BMatP= 5.97D-02
 IDIUse=1 WtCom= 1.00D+00 WtEn= 0.00D+00
 Coeff-Com:  0.736D+00 0.264D+00
 Coeff:      0.736D+00 0.264D+00
 Gap=     0.203 Goal=   None    Shift=    0.000
 Gap=     0.101 Goal=   None    Shift=    0.000
 RMSDP=4.29D-02 MaxDP=1.04D+00 DE= 5.60D-03 OVMax= 2.21D-01

 Cycle   3  Pass 0  IDiag  1:
 E= -168.523286420408     Delta-E=       -0.021152810979 Rises=F Damp=F
 DIIS: error= 1.72D-02 at cycle   3 NSaved=   3.
 NSaved= 3 IEnMin= 3 EnMin= -168.523286420408     IErMin= 1 ErrMin= 1.13D-02
 ErrMax= 1.72D-02 EMaxC= 1.00D+00 BMatC= 7.04D-02 BMatP= 5.97D-02
 IDIUse=1 WtCom= 1.00D+00 WtEn= 0.00D+00
 Coeff-Com:  0.156D+00 0.325D+00 0.519D+00
 Coeff:      0.156D+00 0.325D+00 0.519D+00
 Gap=     0.204 Goal=   None    Shift=    0.000
 Gap=     0.112 Goal=   None    Shift=    0.000
 RMSDP=2.98D-03 MaxDP=4.10D-02 DE=-2.12D-02 OVMax= 8.90D-02

 Cycle   4  Pass 0  IDiag  1:
 E= -168.534970741459     Delta-E=       -0.011684321050 Rises=F Damp=F
 DIIS: error= 9.84D-03 at cycle   4 NSaved=   4.
 NSaved= 4 IEnMin= 4 EnMin= -168.534970741459     IErMin= 4 ErrMin= 9.84D-03
 ErrMax= 9.84D-03 EMaxC= 1.00D+00 BMatC= 1.28D-02 BMatP= 5.97D-02
 IDIUse=1 WtCom= 1.00D+00 WtEn= 0.00D+00
 Coeff-Com:  0.597D-03 0.124D+00 0.338D+00 0.537D+00
 Coeff:      0.597D-03 0.124D+00 0.338D+00 0.537D+00
 Gap=     0.204 Goal=   None    Shift=    0.000
 Gap=     0.112 Goal=   None    Shift=    0.000
 RMSDP=1.16D-03 MaxDP=1.91D-02 DE=-1.17D-02 OVMax= 3.85D-02

 Cycle   5  Pass 0  IDiag  1:
 E= -168.537646358505     Delta-E=       -0.002675617046 Rises=F Damp=F
 DIIS: error= 2.32D-03 at cycle   5 NSaved=   5.
 NSaved= 5 IEnMin= 5 EnMin= -168.537646358505     IErMin= 5 ErrMin= 2.32D-03
 ErrMax= 2.32D-03 EMaxC= 1.00D+00 BMatC= 1.55D-03 BMatP= 1.28D-02
 IDIUse=1 WtCom= 1.00D+00 WtEn= 0.00D+00
 Coeff-Com: -0.799D-02-0.145D-02 0.723D-01 0.304D+00 0.633D+00
 Coeff:     -0.799D-02-0.145D-02 0.723D-01 0.304D+00 0.633D+00
 Gap=     0.204 Goal=   None    Shift=    0.000
 Gap=     0.114 Goal=   None    Shift=    0.000
 RMSDP=4.80D-04 MaxDP=6.88D-03 DE=-2.68D-03 OVMax= 1.08D-02

 Cycle   6  Pass 0  IDiag  1:
 E= -168.538029094034     Delta-E=       -0.000382735530 Rises=F Damp=F
 DIIS: error= 1.06D-03 at cycle   6 NSaved=   6.
 NSaved= 6 IEnMin= 6 EnMin= -168.538029094034     IErMin= 6 ErrMin= 1.06D-03
 ErrMax= 1.06D-03 EMaxC= 1.00D+00 BMatC= 1.61D-04 BMatP= 1.55D-03
 IDIUse=1 WtCom= 1.00D+00 WtEn= 0.00D+00
 Coeff-Com: -0.426D-02-0.148D-01-0.107D-01 0.808D-01 0.305D+00 0.644D+00
 Coeff:     -0.426D-02-0.148D-01-0.107D-01 0.808D-01 0.305D+00 0.644D+00
 Gap=     0.205 Goal=   None    Shift=    0.000
 Gap=     0.114 Goal=   None    Shift=    0.000
 RMSDP=2.06D-04 MaxDP=3.08D-03 DE=-3.83D-04 OVMax= 7.83D-03

 Cycle   7  Pass 0  IDiag  1:
 E= -168.538109367092     Delta-E=       -0.000080273058 Rises=F Damp=F
 DIIS: error= 3.74D-04 at cycle   7 NSaved=   7.
 NSaved= 7 IEnMin= 7 EnMin= -168.538109367092     IErMin= 7 ErrMin= 3.74D-04
 ErrMax= 3.74D-04 EMaxC= 1.00D+00 BMatC= 2.07D-05 BMatP= 1.61D-04
 IDIUse=1 WtCom= 1.00D+00 WtEn= 0.00D+00
 Coeff-Com:  0.171D-02-0.395D-03-0.200D-01-0.575D-01-0.154D+00-0.217D-01
 Coeff-Com:  0.125D+01
 Coeff:      0.171D-02-0.395D-03-0.200D-01-0.575D-01-0.154D+00-0.217D-01
 Coeff:      0.125D+01
 Gap=     0.205 Goal=   None    Shift=    0.000
 Gap=     0.115 Goal=   None    Shift=    0.000
 RMSDP=2.59D-04 MaxDP=3.65D-03 DE=-8.03D-05 OVMax= 1.37D-02

 Cycle   8  Pass 0  IDiag  1:
 E= -168.538157349916     Delta-E=       -0.000047982824 Rises=F Damp=F
 DIIS: error= 3.07D-04 at cycle   8 NSaved=   8.
 NSaved= 8 IEnMin= 8 EnMin= -168.538157349916     IErMin= 8 ErrMin= 3.07D-04
 ErrMax= 3.07D-04 EMaxC= 1.00D+00 BMatC= 6.30D-06 BMatP= 2.07D-05
 IDIUse=1 WtCom= 1.00D+00 WtEn= 0.00D+00
 Coeff-Com: -0.148D-03 0.285D-02 0.555D-03-0.658D-02-0.507D-01-0.956D-01
 Coeff-Com: -0.752D-01 0.122D+01
 Coeff:     -0.148D-03 0.285D-02 0.555D-03-0.658D-02-0.507D-01-0.956D-01
 Coeff:     -0.752D-01 0.122D+01
 Gap=     0.205 Goal=   None    Shift=    0.000
 Gap=     0.115 Goal=   None    Shift=    0.000
 RMSDP=1.93D-04 MaxDP=2.37D-03 DE=-4.80D-05 OVMax= 1.14D-02

 Cycle   9  Pass 0  IDiag  1:
 E= -168.538179484011     Delta-E=       -0.000022134095 Rises=F Damp=F
 DIIS: error= 2.17D-04 at cycle   9 NSaved=   9.
 NSaved= 9 IEnMin= 9 EnMin= -168.538179484011     IErMin= 9 ErrMin= 2.17D-04
 ErrMax= 2.17D-04 EMaxC= 1.00D+00 BMatC= 2.17D-06 BMatP= 6.30D-06
 IDIUse=1 WtCom= 1.00D+00 WtEn= 0.00D+00
 Coeff-Com: -0.885D-03-0.102D-02 0.692D-02 0.199D-01 0.691D-01 0.595D-01
 Coeff-Com: -0.298D+00-0.814D+00 0.196D+01
 Coeff:     -0.885D-03-0.102D-02 0.692D-02 0.199D-01 0.691D-01 0.595D-01
 Coeff:     -0.298D+00-0.814D+00 0.196D+01
 Gap=     0.205 Goal=   None    Shift=    0.000
 Gap=     0.115 Goal=   None    Shift=    0.000
 RMSDP=2.30D-04 MaxDP=3.00D-03 DE=-2.21D-05 OVMax= 1.42D-02

 Cycle  10  Pass 0  IDiag  1:
 E= -168.538196040300     Delta-E=       -0.000016556289 Rises=F Damp=F
 DIIS: error= 1.26D-04 at cycle  10 NSaved=  10.
 NSaved=10 IEnMin=10 EnMin= -168.538196040300     IErMin=10 ErrMin= 1.26D-04
 ErrMax= 1.26D-04 EMaxC= 1.00D+00 BMatC= 1.11D-06 BMatP= 2.17D-06
 IDIUse=1 WtCom= 1.00D+00 WtEn= 0.00D+00
 Coeff-Com: -0.397D-03-0.107D-02 0.119D-02-0.135D-02 0.141D-01 0.425D-01
 Coeff-Com:  0.119D+00-0.680D+00-0.918D-02 0.152D+01
 Coeff:     -0.397D-03-0.107D-02 0.119D-02-0.135D-02 0.141D-01 0.425D-01
 Coeff:      0.119D+00-0.680D+00-0.918D-02 0.152D+01
 Gap=     0.204 Goal=   None    Shift=    0.000
 Gap=     0.115 Goal=   None    Shift=    0.000
 RMSDP=1.82D-04 MaxDP=2.41D-03 DE=-1.66D-05 OVMax= 1.14D-02

 Cycle  11  Pass 0  IDiag  1:
 E= -168.538202655315     Delta-E=       -0.000006615015 Rises=F Damp=F
 DIIS: error= 4.27D-05 at cycle  11 NSaved=  11.
 NSaved=11 IEnMin=11 EnMin= -168.538202655315     IErMin=11 ErrMin= 4.27D-05
 ErrMax= 4.27D-05 EMaxC= 1.00D+00 BMatC= 2.04D-07 BMatP= 1.11D-06
 IDIUse=1 WtCom= 1.00D+00 WtEn= 0.00D+00
 Coeff-Com:  0.321D-03 0.236D-03-0.177D-02-0.864D-02-0.272D-01-0.167D-01
 Coeff-Com:  0.146D+00 0.220D+00-0.660D+00-0.297D-01 0.138D+01
 Coeff:      0.321D-03 0.236D-03-0.177D-02-0.864D-02-0.272D-01-0.167D-01
 Coeff:      0.146D+00 0.220D+00-0.660D+00-0.297D-01 0.138D+01
 Gap=     0.204 Goal=   None    Shift=    0.000
 Gap=     0.115 Goal=   None    Shift=    0.000
 RMSDP=8.82D-05 MaxDP=1.16D-03 DE=-6.62D-06 OVMax= 5.48D-03

 Cycle  12  Pass 0  IDiag  1:
 E= -168.538203758733     Delta-E=       -0.000001103418 Rises=F Damp=F
 DIIS: error= 8.89D-06 at cycle  12 NSaved=  12.
 NSaved=12 IEnMin=12 EnMin= -168.538203758733     IErMin=12 ErrMin= 8.89D-06
 ErrMax= 8.89D-06 EMaxC= 1.00D+00 BMatC= 1.56D-08 BMatP= 2.04D-07
 IDIUse=1 WtCom= 1.00D+00 WtEn= 0.00D+00
 Coeff-Com: -0.344D-04 0.880D-04 0.303D-03 0.929D-03 0.272D-02-0.243D-02
 Coeff-Com: -0.301D-01 0.358D-01 0.815D-01-0.170D+00-0.130D+00 0.121D+01
 Coeff:     -0.344D-04 0.880D-04 0.303D-03 0.929D-03 0.272D-02-0.243D-02
 Coeff:     -0.301D-01 0.358D-01 0.815D-01-0.170D+00-0.130D+00 0.121D+01
 Gap=     0.204 Goal=   None    Shift=    0.000
 Gap=     0.115 Goal=   None    Shift=    0.000
 RMSDP=1.79D-05 MaxDP=2.25D-04 DE=-1.10D-06 OVMax= 1.10D-03

 Cycle  13  Pass 0  IDiag  1:
 E= -168.538203802035     Delta-E=       -0.000000043302 Rises=F Damp=F
 DIIS: error= 2.73D-06 at cycle  13 NSaved=  13.
 NSaved=13 IEnMin=13 EnMin= -168.538203802035     IErMin=13 ErrMin= 2.73D-06
 ErrMax= 2.73D-06 EMaxC= 1.00D+00 BMatC= 1.24D-09 BMatP= 1.56D-08
 IDIUse=1 WtCom= 1.00D+00 WtEn= 0.00D+00
 Coeff-Com: -0.260D-04-0.180D-04 0.206D-03 0.718D-03 0.262D-02 0.794D-03
 Coeff-Com: -0.149D-01-0.125D-01 0.610D-01-0.119D-01-0.125D+00 0.881D-01
 Coeff-Com:  0.101D+01
 Coeff:     -0.260D-04-0.180D-04 0.206D-03 0.718D-03 0.262D-02 0.794D-03
 Coeff:     -0.149D-01-0.125D-01 0.610D-01-0.119D-01-0.125D+00 0.881D-01
 Coeff:      0.101D+01
 Gap=     0.204 Goal=   None    Shift=    0.000
 Gap=     0.115 Goal=   None    Shift=    0.000
 RMSDP=1.51D-06 MaxDP=1.43D-05 DE=-4.33D-08 OVMax= 6.88D-05

 Initial convergence to 1.0D-05 achieved.  Increase integral accuracy.
 Cycle  14  Pass 1  IDiag  1:
 E= -168.538215433149     Delta-E=       -0.000011631113 Rises=F Damp=F
 DIIS: error= 1.05D-05 at cycle   1 NSaved=   1.
 NSaved= 1 IEnMin= 1 EnMin= -168.538215433149     IErMin= 1 ErrMin= 1.05D-05
 ErrMax= 1.05D-05 EMaxC= 1.00D+00 BMatC= 1.40D-08 BMatP= 1.40D-08
 IDIUse=1 WtCom= 1.00D+00 WtEn= 0.00D+00
 Coeff-Com:  0.100D+01
 Coeff:      0.100D+01
 Gap=     0.204 Goal=   None    Shift=    0.000
 Gap=     0.115 Goal=   None    Shift=    0.000
 RMSDP=1.51D-06 MaxDP=1.43D-05 DE=-1.16D-05 OVMax= 6.16D-05

 Cycle  15  Pass 1  IDiag  1:
 E= -168.538215438662     Delta-E=       -0.000000005514 Rises=F Damp=F
 DIIS: error= 2.90D-06 at cycle   2 NSaved=   2.
 NSaved= 2 IEnMin= 2 EnMin= -168.538215438662     IErMin= 2 ErrMin= 2.90D-06
 ErrMax= 2.90D-06 EMaxC= 1.00D+00 BMatC= 1.24D-09 BMatP= 1.40D-08
 IDIUse=1 WtCom= 1.00D+00 WtEn= 0.00D+00
 Coeff-Com:  0.731D-01 0.927D+00
 Coeff:      0.731D-01 0.927D+00
 Gap=     0.204 Goal=   None    Shift=    0.000
 Gap=     0.115 Goal=   None    Shift=    0.000
 RMSDP=9.25D-07 MaxDP=1.47D-05 DE=-5.51D-09 OVMax= 2.71D-05

 Cycle  16  Pass 1  IDiag  1:
 E= -168.538215438116     Delta-E=        0.000000000546 Rises=F Damp=F
 DIIS: error= 5.55D-06 at cycle   3 NSaved=   3.
 NSaved= 3 IEnMin= 2 EnMin= -168.538215438662     IErMin= 2 ErrMin= 2.90D-06
 ErrMax= 5.55D-06 EMaxC= 1.00D+00 BMatC= 4.14D-09 BMatP= 1.24D-09
 IDIUse=1 WtCom= 1.00D+00 WtEn= 0.00D+00
 Coeff-Com: -0.361D-01 0.677D+00 0.359D+00
 Coeff:     -0.361D-01 0.677D+00 0.359D+00
 Gap=     0.204 Goal=   None    Shift=    0.000
 Gap=     0.115 Goal=   None    Shift=    0.000
 RMSDP=6.55D-07 MaxDP=8.14D-06 DE= 5.46D-10 OVMax= 1.57D-05

 Cycle  17  Pass 1  IDiag  1:
 E= -168.538215438999     Delta-E=       -0.000000000883 Rises=F Damp=F
 DIIS: error= 1.09D-06 at cycle   4 NSaved=   4.
 NSaved= 4 IEnMin= 4 EnMin= -168.538215438999     IErMin= 4 ErrMin= 1.09D-06
 ErrMax= 1.09D-06 EMaxC= 1.00D+00 BMatC= 2.35D-10 BMatP= 1.24D-09
 IDIUse=1 WtCom= 1.00D+00 WtEn= 0.00D+00
 Coeff-Com: -0.270D-01 0.308D+00 0.227D+00 0.493D+00
 Coeff:     -0.270D-01 0.308D+00 0.227D+00 0.493D+00
 Gap=     0.204 Goal=   None    Shift=    0.000
 Gap=     0.115 Goal=   None    Shift=    0.000
 RMSDP=1.56D-07 MaxDP=2.27D-06 DE=-8.83D-10 OVMax= 4.07D-06

 Cycle  18  Pass 1  IDiag  1:
 E= -168.538215439052     Delta-E=       -0.000000000053 Rises=F Damp=F
 DIIS: error= 3.53D-07 at cycle   5 NSaved=   5.
 NSaved= 5 IEnMin= 5 EnMin= -168.538215439052     IErMin= 5 ErrMin= 3.53D-07
 ErrMax= 3.53D-07 EMaxC= 1.00D+00 BMatC= 2.41D-11 BMatP= 2.35D-10
 IDIUse=1 WtCom= 1.00D+00 WtEn= 0.00D+00
 Coeff-Com: -0.765D-02 0.382D-01 0.522D-01 0.253D+00 0.664D+00
 Coeff:     -0.765D-02 0.382D-01 0.522D-01 0.253D+00 0.664D+00
 Gap=     0.204 Goal=   None    Shift=    0.000
 Gap=     0.115 Goal=   None    Shift=    0.000
 RMSDP=7.26D-08 MaxDP=9.71D-07 DE=-5.25D-11 OVMax= 2.90D-06

 Cycle  19  Pass 1  IDiag  1:
 E= -168.538215439060     Delta-E=       -0.000000000008 Rises=F Damp=F
 DIIS: error= 1.38D-07 at cycle   6 NSaved=   6.
 NSaved= 6 IEnMin= 6 EnMin= -168.538215439060     IErMin= 6 ErrMin= 1.38D-07
 ErrMax= 1.38D-07 EMaxC= 1.00D+00 BMatC= 5.48D-12 BMatP= 2.41D-11
 IDIUse=1 WtCom= 1.00D+00 WtEn= 0.00D+00
 Coeff-Com:  0.260D-02-0.565D-01-0.372D-01 0.477D-02 0.320D+00 0.766D+00
 Coeff:      0.260D-02-0.565D-01-0.372D-01 0.477D-02 0.320D+00 0.766D+00
 Gap=     0.204 Goal=   None    Shift=    0.000
 Gap=     0.115 Goal=   None    Shift=    0.000
 RMSDP=6.18D-08 MaxDP=8.48D-07 DE=-8.24D-12 OVMax= 3.23D-06

 Cycle  20  Pass 1  IDiag  1:
 E= -168.538215439065     Delta-E=       -0.000000000005 Rises=F Damp=F
 DIIS: error= 1.11D-07 at cycle   7 NSaved=   7.
 NSaved= 7 IEnMin= 7 EnMin= -168.538215439065     IErMin= 7 ErrMin= 1.11D-07
 ErrMax= 1.11D-07 EMaxC= 1.00D+00 BMatC= 8.22D-13 BMatP= 5.48D-12
 IDIUse=1 WtCom= 1.00D+00 WtEn= 0.00D+00
 Coeff-Com:  0.119D-02-0.479D-02-0.123D-01-0.379D-01-0.965D-01-0.702D-01
 Coeff-Com:  0.122D+01
 Coeff:      0.119D-02-0.479D-02-0.123D-01-0.379D-01-0.965D-01-0.702D-01
 Coeff:      0.122D+01
 Gap=     0.204 Goal=   None    Shift=    0.000
 Gap=     0.115 Goal=   None    Shift=    0.000
 RMSDP=6.30D-08 MaxDP=8.99D-07 DE=-5.34D-12 OVMax= 3.84D-06

 Cycle  21  Pass 1  IDiag  1:
 E= -168.538215439068     Delta-E=       -0.000000000003 Rises=F Damp=F
 DIIS: error= 8.62D-08 at cycle   8 NSaved=   8.
 NSaved= 8 IEnMin= 8 EnMin= -168.538215439068     IErMin= 8 ErrMin= 8.62D-08
 ErrMax= 8.62D-08 EMaxC= 1.00D+00 BMatC= 3.66D-13 BMatP= 8.22D-13
 IDIUse=1 WtCom= 1.00D+00 WtEn= 0.00D+00
 Coeff-Com: -0.156D-02 0.232D-01 0.219D-01 0.121D-01-0.864D-01-0.273D+00
 Coeff-Com: -0.527D+00 0.183D+01
 Coeff:     -0.156D-02 0.232D-01 0.219D-01 0.121D-01-0.864D-01-0.273D+00
 Coeff:     -0.527D+00 0.183D+01
 Gap=     0.204 Goal=   None    Shift=    0.000
 Gap=     0.115 Goal=   None    Shift=    0.000
 RMSDP=8.67D-08 MaxDP=1.20D-06 DE=-2.90D-12 OVMax= 5.41D-06

 Cycle  22  Pass 1  IDiag  1:
 E= -168.538215439070     Delta-E=       -0.000000000002 Rises=F Damp=F
 DIIS: error= 4.89D-08 at cycle   9 NSaved=   9.
 NSaved= 9 IEnMin= 9 EnMin= -168.538215439070     IErMin= 9 ErrMin= 4.89D-08
 ErrMax= 4.89D-08 EMaxC= 1.00D+00 BMatC= 1.29D-13 BMatP= 3.66D-13
 IDIUse=1 WtCom= 1.00D+00 WtEn= 0.00D+00
 Coeff-Com:  0.452D-03-0.113D-01-0.430D-02 0.138D-01 0.888D-01 0.218D+00
 Coeff-Com: -0.412D+00-0.865D+00 0.197D+01
 Coeff:      0.452D-03-0.113D-01-0.430D-02 0.138D-01 0.888D-01 0.218D+00
 Coeff:     -0.412D+00-0.865D+00 0.197D+01
 Gap=     0.204 Goal=   None    Shift=    0.000
 Gap=     0.115 Goal=   None    Shift=    0.000
 RMSDP=8.00D-08 MaxDP=1.04D-06 DE=-2.10D-12 OVMax= 4.96D-06

 Cycle  23  Pass 1  IDiag  1:
 E= -168.538215439072     Delta-E=       -0.000000000001 Rises=F Damp=F
 DIIS: error= 1.53D-08 at cycle  10 NSaved=  10.
 NSaved=10 IEnMin=10 EnMin= -168.538215439072     IErMin=10 ErrMin= 1.53D-08
 ErrMax= 1.53D-08 EMaxC= 1.00D+00 BMatC= 1.93D-14 BMatP= 1.29D-13
 IDIUse=1 WtCom= 1.00D+00 WtEn= 0.00D+00
 Coeff-Com:  0.307D-03-0.529D-02-0.478D-02-0.535D-02 0.237D-01 0.456D-01
 Coeff-Com:  0.117D+00-0.427D+00 0.873D-02 0.125D+01
 Coeff:      0.307D-03-0.529D-02-0.478D-02-0.535D-02 0.237D-01 0.456D-01
 Coeff:      0.117D+00-0.427D+00 0.873D-02 0.125D+01
 Gap=     0.204 Goal=   None    Shift=    0.000
 Gap=     0.115 Goal=   None    Shift=    0.000
 RMSDP=3.10D-08 MaxDP=3.91D-07 DE=-1.36D-12 OVMax= 1.91D-06

 Cycle  24  Pass 1  IDiag  1:
 E= -168.538215439072     Delta-E=        0.000000000000 Rises=F Damp=F
 DIIS: error= 3.60D-09 at cycle  11 NSaved=  11.
 NSaved=11 IEnMin=10 EnMin= -168.538215439072     IErMin=11 ErrMin= 3.60D-09
 ErrMax= 3.60D-09 EMaxC= 1.00D+00 BMatC= 2.94D-15 BMatP= 1.93D-14
 IDIUse=1 WtCom= 1.00D+00 WtEn= 0.00D+00
 Coeff-Com: -0.264D-04 0.107D-02 0.784D-03-0.262D-02-0.634D-02-0.223D-01
 Coeff-Com:  0.433D-01 0.846D-01-0.187D+00-0.976D-01 0.119D+01
 Coeff:     -0.264D-04 0.107D-02 0.784D-03-0.262D-02-0.634D-02-0.223D-01
 Coeff:      0.433D-01 0.846D-01-0.187D+00-0.976D-01 0.119D+01
 Gap=     0.204 Goal=   None    Shift=    0.000
 Gap=     0.115 Goal=   None    Shift=    0.000
 RMSDP=5.57D-09 MaxDP=6.36D-08 DE= 2.27D-13 OVMax= 3.29D-07

 SCF Done:  E(UB3LYP) =  -168.538215439     A.U. after   24 cycles
             Convg  =    0.5569D-08             -V/T =  2.0087
 <Sx>= 0.0000 <Sy>= 0.0000 <Sz>= 1.0000 <S**2>= 2.0208 S= 1.0069
 <L.S>= 0.000000000000E+00
 KE= 1.670877106920D+02 PE=-5.084484176348D+02 EE= 1.160286235641D+02
 Annihilation of the first spin contaminant:
 S**2 before annihilation     2.0208,   after     2.0001
 Leave Link  502 at Fri Sep 13 02:49:23 2019, MaxMem=  131072000 cpu:      18.0
 (Enter C:\G09W\l801.exe)
 ExpMin= 1.61D-01 ExpMax= 5.48D+03 ExpMxC= 8.25D+02 IAcc=3 IRadAn=         5 AccDes= 0.00D+00
 HarFok:  IExCor=  205 AccDes= 0.00D+00 IRadAn=         5 IDoV=-2
 ScaDFX=  1.000000  1.000000  1.000000  1.000000
 Largest valence mixing into a core orbital is  6.63D-05
 Largest core mixing into a valence orbital is  1.16D-05
 Largest valence mixing into a core orbital is  7.39D-05
 Largest core mixing into a valence orbital is  1.47D-05
 Range of M.O.s used for correlation:     4    47
 NBasis=    47 NAE=    12 NBE=    10 NFC=     3 NFV=     0
 NROrb=     44 NOA=     9 NOB=     7 NVA=    35 NVB=    37
 Leave Link  801 at Fri Sep 13 02:49:24 2019, MaxMem=  131072000 cpu:       1.0
 (Enter C:\G09W\l914.exe)
 UHF ground state
 MDV=   131072000 DFT=T DoStab=F Mixed=T DoRPA=T DoScal=F NonHer=T
 Keep R1, R2, and R3 ints in memory in canonical form, NReq=2879320.
 Symmetry not used in FoFDir.
 MinBra= 0 MaxBra= 2 Meth= 1.
 IRaf=       0 NMat=   1 IRICut=       1 DoRegI=T DoRafI=F ISym2E= 0 JSym2E=0.
 Making orbital integer symmetry assigments:
 Orbital symmetries:
 Alpha Orbitals:
       Occupied  (A) (A) (A) (A) (A) (A) (A) (A) (A) (A) (A) (A)
       Virtual   (A) (A) (A) (A) (A) (A) (A) (A) (A) (A) (A) (A)
[...]
 Root      2 :     3.238774734922189   Change is   -0.000061023148780
 Root      3 :     3.488827303229478   Change is   -0.000242016419609
 Iteration     6 Dimension    36 NMult    36
 Cannot handle 2e integral symmetry, ISym2E=1.
 CISAX:  IP=  1 NPass=   1 NMax=     6.
 CISAX will form     6 AO SS matrices at one time.
 NMat=     6 NSing=     6.
 Cannot handle 2e integral symmetry, ISym2E=1.
 CISAX:  IP=  1 NPass=   1 NMax=     6.
 CISAX will form     6 AO SS matrices at one time.
 NMat=     6 NSing=     6.
 Root      1 not converged, maximum delta is    0.000211731602259
 Root      2 not converged, maximum delta is    0.000353598766950
 Root      3 not converged, maximum delta is    0.007242377249145
 Excitation Energies [eV] at current iteration:
 Root      1 :     0.216041966062462   Change is   -0.000001847891096
 Root      2 :     3.238771704529672   Change is   -0.000003030392517
 Root      3 :     3.488772124481490   Change is   -0.000055178747988
 Iteration     7 Dimension    42 NMult    42
 Cannot handle 2e integral symmetry, ISym2E=1.
 CISAX:  IP=  1 NPass=   1 NMax=     6.
 CISAX will form     6 AO SS matrices at one time.
 NMat=     6 NSing=     6.
 Cannot handle 2e integral symmetry, ISym2E=1.
 CISAX:  IP=  1 NPass=   1 NMax=     6.
 CISAX will form     6 AO SS matrices at one time.
 NMat=     6 NSing=     6.
 Root      1 not converged, maximum delta is    0.000020294294646
 Root      2 not converged, maximum delta is    0.000071704056407
 Root      3 not converged, maximum delta is    0.001016923377078
 Excitation Energies [eV] at current iteration:
 Root      1 :     0.216041889111514   Change is   -0.000000076950948
 Root      2 :     3.238771547140023   Change is   -0.000000157389650
 Root      3 :     3.488765651013958   Change is   -0.000006473467532
 Iteration     8 Dimension    48 NMult    48
 Cannot handle 2e integral symmetry, ISym2E=1.
 CISAX:  IP=  1 NPass=   1 NMax=     6.
 CISAX will form     6 AO SS matrices at one time.
 NMat=     6 NSing=     6.
 Cannot handle 2e integral symmetry, ISym2E=1.
 CISAX:  IP=  1 NPass=   1 NMax=     6.
 CISAX will form     6 AO SS matrices at one time.
 NMat=     6 NSing=     6.
 Root      1 not converged, maximum delta is    0.000003568064383
 Root      2 not converged, maximum delta is    0.000011891049056
 Root      3 not converged, maximum delta is    0.000138460841454
 Excitation Energies [eV] at current iteration:
 Root      1 :     0.216041886819852   Change is   -0.000000002291661
 Root      2 :     3.238771539482057   Change is   -0.000000007657965
 Root      3 :     3.488765244674438   Change is   -0.000000406339520
 Iteration     9 Dimension    54 NMult    54
 Cannot handle 2e integral symmetry, ISym2E=1.
 CISAX:  IP=  1 NPass=   1 NMax=     6.
 CISAX will form     6 AO SS matrices at one time.
 NMat=     6 NSing=     6.
 Cannot handle 2e integral symmetry, ISym2E=1.
 CISAX:  IP=  1 NPass=   1 NMax=     6.
 CISAX will form     6 AO SS matrices at one time.
 NMat=     6 NSing=     6.
 Root      1 has converged.
 Root      2 has converged.
 Root      3 not converged, maximum delta is    0.000010070734240
 Excitation Energies [eV] at current iteration:
 Root      1 :     0.216041886746405   Change is   -0.000000000073447
 Root      2 :     3.238771539338263   Change is   -0.000000000143794
 Root      3 :     3.488765235008695   Change is   -0.000000009665744
 Iteration    10 Dimension    56 NMult    56
 Cannot handle 2e integral symmetry, ISym2E=1.
 CISAX:  IP=  1 NPass=   1 NMax=     2.
 CISAX will form     2 AO SS matrices at one time.
 NMat=     2 NSing=     2.
 Cannot handle 2e integral symmetry, ISym2E=1.
 CISAX:  IP=  1 NPass=   1 NMax=     2.
 CISAX will form     2 AO SS matrices at one time.
 NMat=     2 NSing=     2.
 Root      1 has converged.
 Root      2 has converged.
 Root      3 not converged, maximum delta is    0.000001150407260
 Excitation Energies [eV] at current iteration:
 Root      1 :     0.216041886742787   Change is   -0.000000000003618
 Root      2 :     3.238771539337311   Change is   -0.000000000000952
 Root      3 :     3.488765234873748   Change is   -0.000000000134947
 Iteration    11 Dimension    58 NMult    58
 Cannot handle 2e integral symmetry, ISym2E=1.
 CISAX:  IP=  1 NPass=   1 NMax=     2.
 CISAX will form     2 AO SS matrices at one time.
 NMat=     2 NSing=     2.
 Cannot handle 2e integral symmetry, ISym2E=1.
 CISAX:  IP=  1 NPass=   1 NMax=     2.
 CISAX will form     2 AO SS matrices at one time.
 NMat=     2 NSing=     2.
 Root      1 has converged.
 Root      2 has converged.
 Root      3 has converged.
 Excitation Energies [eV] at current iteration:
 Root      1 :     0.216041886742563   Change is   -0.000000000000225
 Root      2 :     3.238771539337312   Change is    0.000000000000002
 Root      3 :     3.488765234871492   Change is   -0.000000000002255
 Convergence achieved on expansion vectors.
 ***********************************************************************
 Excited states from <AA,BB:AA,BB> singles matrix:
 ***********************************************************************
 
 ExtSpn:  IState=     1 X2= 1.101 Y2= 0.101 X2-Y2-1= 2.22D-16
          S2Grnd=  2.025 Ra=  0.000 Rb=  0.005 T=  0.000 S2Ext=  0.006 S2=  2.031
 ExtSpn:  IState=     2 X2= 1.002 Y2= 0.002 X2-Y2-1=-6.66D-16
          S2Grnd=  2.025 Ra=  0.005 Rb=  0.025 T=  0.025 S2Ext=  0.055 S2=  2.080
 ExtSpn:  IState=     3 X2= 1.011 Y2= 0.011 X2-Y2-1=-5.55D-16
          S2Grnd=  2.025 Ra=  0.000 Rb= -0.011 T= -0.014 S2Ext= -0.025 S2=  2.000
 1PDM for each excited state written to RWF  633
 Ground to excited state transition densities written to RWF  633
 Ground to excited state transition electric dipole moments (Au):
       state          X           Y           Z        Dip. S.      Osc.
         1         0.0014     -0.0023      0.1370      0.0188      0.0001
         2         0.0090      0.0020     -0.1381      0.0191      0.0015
         3        -0.3103      0.0560      0.0005      0.0994      0.0085
 Ground to excited state transition velocity dipole moments (Au):
       state          X           Y           Z        Dip. S.      Osc.
         1         0.0000      0.0000     -0.0184      0.0003      0.0285
         2        -0.0010     -0.0002      0.0300      0.0009      0.0051
         3         0.0319     -0.0076      0.0001      0.0011      0.0056
 Ground to excited state transition magnetic dipole moments (Au):
       state          X           Y           Z
         1         0.6235     -0.1655     -0.0003
         2        -0.0197     -0.2967     -0.0008
         3         0.0031     -0.0051      0.0600
 Ground to excited state transition velocity quadrupole moments (Au):
       state          XX          YY          ZZ          XY          XZ          YZ
         1         0.0000     -0.0001      0.0001     -0.0001      0.0345      0.0039
         2        -0.0008      0.0005      0.0000     -0.0004     -0.0147     -0.0077
         3         0.0329      0.0131     -0.0168      0.0263     -0.0004      0.0002
 <0|del|b> * <b|rxdel|0> + <0|del|b> * <b|delr+rdel|0>
 Rotatory Strengths (R) in cgs (10**-40 erg-esu-cm/Gauss)
       state          XX          YY          ZZ    R(velocity)
         1        -0.0052     -0.5866     -0.9889     -0.5269
         2         0.0720      0.0427      0.2386      0.1178
         3         0.1257      0.3054      0.3677      0.2663
 1/2[<0|r|b>*<b|rxdel|0> + (<0|rxdel|b>*<b|r|0>)*]
 Rotatory Strengths (R) in cgs (10**-40 erg-esu-cm/Gauss)
       state          XX          YY          ZZ     R(length)
         1        -0.6143     -0.2700      0.0311     -0.2844
         2         0.1253      0.4279     -0.0818      0.1571
         3         0.6849      0.2006     -0.0215      0.2880
  1/2[<0|del|b>*<b|r|0> + (<0|r|b>*<b|del|0>)*] (Au)
       state          X           Y           Z        Dip. S.   Osc.(frdel)
         1         0.0000      0.0000     -0.0025      0.0025      0.0017
         2         0.0000      0.0000     -0.0041      0.0042      0.0028
         3        -0.0099     -0.0004      0.0000      0.0103      0.0069

 Excitation energies and oscillator strengths:
 
 Excited State   1:  3.021-A      0.2160 eV 5738.90 nm  f=0.0001  <S**2>=2.031
     10B -> 11B        1.04197
     10B <- 11B        0.29674
 This state for optimization and/or second-order correction.
 Total Energy, E(TD-HF/TD-KS) =  -168.519831682    
 Copying the excited state density for this state as the 1-particle RhoCI density.
 
 Excited State   2:  3.053-A      3.2388 eV  382.81 nm  f=0.0015  <S**2>=2.080
     12A -> 13A        0.23974
      8B -> 11B        0.95087
     10B -> 13B       -0.15606
 
 Excited State   3:  3.000-A      3.4888 eV  355.38 nm  f=0.0085  <S**2>=2.000
     10A -> 13A       -0.15030
      9B -> 11B        0.78822
     10B -> 12B        0.59529
 SavETr:  write IOETrn=   770 NScale= 10 NData=  16 NLR=1 LETran=      62.
 The state does not have a specific multiplicity.
 Cannot handle 2e integral symmetry, ISym2E=1.
 CISAX:  IP=  1 NPass=   1 NMax=     1.
 CISAX will form     1 AO SS matrices at one time.
 NMat=     1 NSing=     1.
 Cannot handle 2e integral symmetry, ISym2E=1.
 CISAX:  IP=  1 NPass=   1 NMax=     1.
 CISAX will form     1 AO SS matrices at one time.
 NMat=     1 NSing=     1.
 Leave Link  914 at Fri Sep 13 03:02:25 2019, MaxMem=  131072000 cpu:      25.0
 (Enter C:\G09W\l1002.exe)
 Minotr:  UHF open shell wavefunction.
          Computing CIS/TD-HF/TD-KS derivatives.
          Using Z-Vector for PSCF gradient.
          Skipping F1 and S1 gradient terms here.
          IDoAtm=1111
          Frozen-core window.
          Direct CPHF calculation.
          Differentiating once with respect to electric field.
                with respect to dipole field.
          Differentiating once with respect to nuclear coordinates.
          Requested convergence is 1.0D-10 RMS, and 1.0D-09 maximum.
          NewPWx=F KeepS1=T KeepF1=T KeepIn=T MapXYZ=F SortEE=F KeepMc=T.
          MDV=     131071968 using IRadAn=       0.
 Generate precomputed XC quadrature information.
          Keep R1 and R2 ints in memory in canonical form, NReq=2095059.
 Symmetry not used in FoFDir.
 MinBra= 0 MaxBra= 2 Meth= 1.
 IRaf=       0 NMat=   1 IRICut=       1 DoRegI=T DoRafI=F ISym2E= 0 JSym2E=0.
          Solving linear equations separately, MaxMat=       0.
          There are     1 degrees of freedom in the 1st order CPHF.  IDoFFX=0.
 LinEq1:  Iter=  0 NonCon=     1 RMS=1.10D-02 Max=1.66D-01
 AX will form     1 AO Fock derivatives at one time.
 LinEq1:  Iter=  1 NonCon=     1 RMS=1.75D-02 Max=2.69D-01
 LinEq1:  Iter=  2 NonCon=     1 RMS=5.79D-03 Max=4.55D-02
 LinEq1:  Iter=  3 NonCon=     1 RMS=2.37D-03 Max=3.24D-02
 LinEq1:  Iter=  4 NonCon=     1 RMS=1.88D-03 Max=2.83D-02
 LinEq1:  Iter=  5 NonCon=     1 RMS=7.80D-04 Max=8.96D-03
 LinEq1:  Iter=  6 NonCon=     1 RMS=4.55D-04 Max=7.55D-03
 LinEq1:  Iter=  7 NonCon=     1 RMS=2.64D-04 Max=4.32D-03
 LinEq1:  Iter=  8 NonCon=     1 RMS=9.86D-05 Max=8.23D-04
 LinEq1:  Iter=  9 NonCon=     1 RMS=2.73D-05 Max=3.62D-04
 LinEq1:  Iter= 10 NonCon=     1 RMS=6.26D-06 Max=5.00D-05
 LinEq1:  Iter= 11 NonCon=     1 RMS=1.87D-06 Max=1.35D-05
 LinEq1:  Iter= 12 NonCon=     1 RMS=4.66D-07 Max=3.12D-06
 LinEq1:  Iter= 13 NonCon=     1 RMS=1.30D-07 Max=9.10D-07
 LinEq1:  Iter= 14 NonCon=     1 RMS=3.49D-08 Max=2.77D-07
 LinEq1:  Iter= 15 NonCon=     1 RMS=8.99D-09 Max=9.36D-08
 LinEq1:  Iter= 16 NonCon=     1 RMS=1.55D-09 Max=1.09D-08
 LinEq1:  Iter= 17 NonCon=     1 RMS=2.30D-10 Max=1.61D-09
 LinEq1:  Iter= 18 NonCon=     0 RMS=4.93D-11 Max=3.84D-10
 Linear equations converged to 1.000D-10 1.000D-09 after    18 iterations.
 End of Minotr Frequency-dependent properties file   721 does not exist.
 End of Minotr Frequency-dependent properties file   722 does not exist.
 Leave Link 1002 at Fri Sep 13 03:02:48 2019, MaxMem=  131072000 cpu:      23.0
 (Enter C:\G09W\l701.exe)
 Compute integral first derivatives.
 ... and contract with generalized density number  6.
 Leave Link  701 at Fri Sep 13 03:02:49 2019, MaxMem=  131072000 cpu:       1.0
 (Enter C:\G09W\l702.exe)
 L702 exits ... SP integral derivatives will be done elsewhere.
 Leave Link  702 at Fri Sep 13 03:02:49 2019, MaxMem=  131072000 cpu:       0.0
 (Enter C:\G09W\l703.exe)
 Compute integral first derivatives, UseDBF=F ICtDFT=           0.
 Integral derivatives from FoFDir, PRISM(SPDF).
 Calling FoFJK, ICntrl=      5127 FMM=F ISym2X=0 I1Cent= 0 IOpClX= 1 NMat=1 NMatS=1 NMatT=0.
 FoFCou: FMM=F IPFlag=           0 FMFlag=      100000 FMFlg1=         800
         NFxFlg=           0 DoJE=F BraDBF=F KetDBF=F FulRan=T
         Omega=  0.000000  0.000000  1.000000  0.000000  0.000000 ICntrl=    5127 IOpCl=  1
         NMat0=    1 NMatS0=    1 NMatT0=    0 NMatD0=    1 NMtDS0=    0 NMtDT0=    0
         I1Cent=           0 NGrid=           0.
 Symmetry not used in FoFCou.
 Leave Link  703 at Fri Sep 13 03:02:52 2019, MaxMem=  131072000 cpu:       3.0
 (Enter C:\G09W\l716.exe)
 Dipole        =-9.37195054D-01 1.73508265D-01-7.21402653D-03
 ***** Axes restored to original set *****
 -------------------------------------------------------------------
 Center     Atomic                   Forces (Hartrees/Bohr)
 Number     Number              X              Y              Z
 -------------------------------------------------------------------
      1        1          -0.006973904    0.000778940    0.006255749
      2        7           0.037389078   -0.000895675    0.003184730
      3        6          -0.021945763    0.001546019   -0.004910287
      4        8          -0.008469410   -0.001429285   -0.004530192
 -------------------------------------------------------------------
 Cartesian Forces:  Max     0.037389078 RMS     0.013227743
 Leave Link  716 at Fri Sep 13 03:02:52 2019, MaxMem=  131072000 cpu:       0.0
 (Enter C:\G09W\l103.exe)

 GradGradGradGradGradGradGradGradGradGradGradGradGradGradGradGradGradGrad
 Berny optimization.
 Using GEDIIS/GDIIS optimizer.
 Internal  Forces:  Max     0.031842745 RMS     0.016563620
 Search for a local minimum.
 Step number  10 out of a maximum of   20
 All quantities printed in internal units (Hartrees-Bohrs-Radians)
 RMS Force = .16564D-01 SwitMx=.10000D-02 MixMth= 1
 Mixed Optimization -- RFO/linear search
 Update second derivatives using D2CorX and points    5    6   10    4
 The second derivative matrix:
                          R1        R2        R3        A1        A2
           R1           0.35533
           R2          -0.33499  -2.77977
           R3           0.16807   1.68348  -0.16929
           A1           0.29138   2.66950  -1.42688  -2.11890
           A2          -0.20397  -1.64990   0.82801   1.45798  -0.71605
           D1           0.09539   0.97424  -0.62817  -0.81245   0.51399
                          D1
           D1          -0.24952
 ITU=  0  0  0  0  0 -1  0
 Use linear search instead of GDIIS.
 Skip linear search -- no minimum in search direction.
 Steepest descent instead of Quadratic search.
 Steepest descent step scaled to max of 0.05000.
 Iteration  1 RMS(Cart)=  0.03362367 RMS(Int)=  0.00047104
 Iteration  2 RMS(Cart)=  0.00040379 RMS(Int)=  0.00000003
 Iteration  3 RMS(Cart)=  0.00000003 RMS(Int)=  0.00000000
 Variable       Old X    -DE/DX   Delta X   Delta X   Delta X     New X
                                 (Linear)    (Quad)   (Total)
    R1        1.91279  -0.00295   0.00000  -0.00464  -0.00464   1.90815
    R2        2.42548  -0.03184   0.00000  -0.05000  -0.05000   2.37548
    R3        2.42317  -0.00661   0.00000  -0.01038  -0.01038   2.41280
    A1        2.27319   0.01686   0.00000   0.02647   0.02647   2.29966
    A2        2.09806  -0.01706   0.00000  -0.02679  -0.02679   2.07127
    D1        3.13921   0.00209   0.00000   0.00328   0.00328  -3.14070
         Item               Value     Threshold  Converged?
 Maximum Force            0.031843     0.000450     NO 
 RMS     Force            0.016564     0.000300     NO 
 Maximum Displacement     0.048586     0.001800     NO 
 RMS     Displacement     0.033762     0.001200     NO 
 Predicted change in Energy=-9.583554D-03
 GradGradGradGradGradGradGradGradGradGradGradGradGradGradGradGradGradGrad

 Leave Link  103 at Fri Sep 13 03:02:52 2019, MaxMem=  131072000 cpu:       0.0
 (Enter C:\G09W\l202.exe)
                          Input orientation:                          
 ---------------------------------------------------------------------
 Center     Atomic      Atomic             Coordinates (Angstroms)
 Number     Number       Type             X           Y           Z
 ---------------------------------------------------------------------
      1          1           0       -0.201262   -0.097246    0.089638
      2          7           0        0.233413    0.094884    0.980560
      3          6           0        1.435911    0.077731    1.346460
      4          8           0        1.711567    0.367797    2.558931
 ---------------------------------------------------------------------
                    Distance matrix (angstroms):
                    1          2          3          4
     1  H    0.000000
     2  N    1.009751   0.000000
     3  C    2.071366   1.257052   0.000000
     4  O    3.157940   2.179604   1.276796   0.000000
 Stoichiometry    CHNO(3)
 Framework group  C1[X(CHNO)]
 Deg. of freedom     6
 Full point group                 C1      NOp   1
 RotChk:  IX=2 Diff= 1.51D-02
 Largest Abelian subgroup         C1      NOp   1
 Largest concise Abelian subgroup C1      NOp   1
                         Standard orientation:                         
 ---------------------------------------------------------------------
 Center     Atomic      Atomic             Coordinates (Angstroms)
 Number     Number       Type             X           Y           Z
 ---------------------------------------------------------------------
      1          1           0       -2.008878    0.064342   -0.000519
      2          7           0       -1.038201   -0.213839    0.000089
      3          6           0        0.024949    0.456900    0.000040
      4          8           0        1.140824   -0.163609   -0.000044
 ---------------------------------------------------------------------
 Rotational constants (GHZ):    141.2796223     12.6680385     11.6256117
 Leave Link  202 at Fri Sep 13 03:02:52 2019, MaxMem=  131072000 cpu:       0.0
 (Enter C:\G09W\l301.exe)
 Standard basis: 6-31G(d) (6D, 7F)
 Ernie: Thresh=  0.10000D-02 Tol=  0.10000D-05 Strict=F.
 There are    47 symmetry adapted basis functions of A   symmetry.
 Integral buffers will be    262144 words long.
 Raffenetti 2 integral format.
 Two-electron integral symmetry is turned on.
    47 basis functions,    88 primitive gaussians,    47 cartesian basis functions
    12 alpha electrons       10 beta electrons
       nuclear repulsion energy        57.7124241561 Hartrees.
 IExCor=  402 DFT=T Ex+Corr=B3LYP ExCW=0 ScaHFX=  0.200000
 ScaDFX=  0.800000  0.720000  1.000000  0.810000 ScalE2=  1.000000  1.000000
 IRadAn=      0 IRanWt=     -1 IRanGd=            0 ICorTp=0
 NAtoms=    4 NActive=    4 NUniq=    4 SFac= 1.00D+00 NAtFMM=   60 NAOKFM=F Big=F
 Leave Link  301 at Fri Sep 13 03:02:52 2019, MaxMem=  131072000 cpu:       0.0
 (Enter C:\G09W\l302.exe)
 NPDir=0 NMtPBC=     1 NCelOv=     1 NCel=       1 NClECP=     1 NCelD=      1
         NCelK=      1 NCelE2=     1 NClLst=     1 CellRange=     0.0.
 One-electron integrals computed using PRISM.
 NBasis=    47 RedAO= T  NBF=    47
 NBsUse=    47 1.00D-06 NBFU=    47
 Precomputing XC quadrature grid using
 IXCGrd= 2 IRadAn=           0 IRanWt=          -1 IRanGd=           0 AccXCQ= 0.00D+00.
 NRdTot=     245 NPtTot=       30846 NUsed=       32001 NTot=       32017
 NSgBfM=    47    47    47    47    47 NAtAll=     4     4.
 Leave Link  302 at Fri Sep 13 03:02:53 2019, MaxMem=  131072000 cpu:       1.0
 fname=.\gxx.scr fd = -1

 open-new-file
