 Entering Gaussian System, Link 0=g09
 Input=D:\ChemGo\ChemGo\test\tmp\State1_1.gjf
 Output=D:\ChemGo\ChemGo\test\tmp\State1_1.out
 Initial command:
 C:\G09W\l1.exe .\gxx.inp D:\ChemGo\ChemGo\test\tmp\State1_1.out /scrdir=.\
 Entering Link 1 = C:\G09W\l1.exe PID=     15624.
  
 Copyright (c) 1988,1990,1992,1993,1995,1998,2003,2009,2011,
            Gaussian, Inc.  All Rights Reserved.
  
 This is part of the Gaussian(R) 09 program.  It is based on
 the Gaussian(R) 03 system (copyright 2003, Gaussian, Inc.),
 the Gaussian(R) 98 system (copyright 1998, Gaussian, Inc.),
 the Gaussian(R) 94 system (copyright 1995, Gaussian, Inc.),
 the Gaussian 92(TM) system (copyright 1992, Gaussian, Inc.),
 the Gaussian 90(TM) system (copyright 1990, Gaussian, Inc.),
 the Gaussian 88(TM) system (copyright 1988, Gaussian, Inc.),
 the Gaussian 86(TM) system (copyright 1986, Carnegie Mellon
 University), and the Gaussian 82(TM) system (copyright 1983,
 Carnegie Mellon University). Gaussian is a federally registered
 trademark of Gaussian, Inc.
  
 This software contains proprietary and confidential information,
 including trade secrets, belonging to Gaussian, Inc.
  
 This software is provided under written license and may be
 used, copied, transmitted, or stored only in accord with that
 written license.
  
 The following legend is applicable only to US Government
 contracts under FAR:
  
                    RESTRICTED RIGHTS LEGEND
  
 Use, reproduction and disclosure by the US Government is
 subject to restrictions as set forth in subparagraphs (a)
 and (c) of the Commercial Computer Software - Restricted
 Rights clause in FAR 52.227-19.
  
 Gaussian, Inc.
 340 Quinnipiac St., Bldg. 40, Wallingford CT 06492
  
  
 ---------------------------------------------------------------
 Warning -- This program may not be used in any manner that
 competes with the business of Gaussian, Inc. or will provide
 assistance to any competitor of Gaussian, Inc.  The licensee
 of this program is prohibited from giving any competitor of
 Gaussian, Inc. access to this program.  By using this program,
 the user acknowledges that Gaussian, Inc. is engaged in the
 business of creating and licensing software in the field of
 computational chemistry and represents and warrants to the
 licensee that it is not a competitor of Gaussian, Inc. and that
 it will not use this program in any manner prohibited above.
 ---------------------------------------------------------------
  

 Cite this work as:
 Gaussian 09, Revision C.01,
 M. J. Frisch, G. W. Trucks, H. B. Schlegel, G. E. Scuseria, 
 M. A. Robb, J. R. Cheeseman, G. Scalmani, V. Barone, B. Mennucci, 
 G. A. Petersson, H. Nakatsuji, M. Caricato, X. Li, H. P. Hratchian, 
 A. F. Izmaylov, J. Bloino, G. Zheng, J. L. Sonnenberg, M. Hada, 
 M. Ehara, K. Toyota, R. Fukuda, J. Hasegawa, M. Ishida, T. Nakajima, 
 Y. Honda, O. Kitao, H. Nakai, T. Vreven, J. A. Montgomery, Jr., 
 J. E. Peralta, F. Ogliaro, M. Bearpark, J. J. Heyd, E. Brothers, 
 K. N. Kudin, V. N. Staroverov, T. Keith, R. Kobayashi, J. Normand, 
 K. Raghavachari, A. Rendell, J. C. Burant, S. S. Iyengar, J. Tomasi, 
 M. Cossi, N. Rega, J. M. Millam, M. Klene, J. E. Knox, J. B. Cross, 
 V. Bakken, C. Adamo, J. Jaramillo, R. Gomperts, R. E. Stratmann, 
 O. Yazyev, A. J. Austin, R. Cammi, C. Pomelli, J. W. Ochterski, 
 R. L. Martin, K. Morokuma, V. G. Zakrzewski, G. A. Voth, 
 P. Salvador, J. J. Dannenberg, S. Dapprich, A. D. Daniels, 
 O. Farkas, J. B. Foresman, J. V. Ortiz, J. Cioslowski, 
 and D. J. Fox, Gaussian, Inc., Wallingford CT, 2010.
 
 ******************************************
 Gaussian 09:  IA32W-G09RevC.01 23-Sep-2011
                22-Mar-2020 
 ******************************************
 %mem=1000mb
 %chk=LiuKun1.chk
 ------------------------------------------------------
 #p sto-3g scf=maxcycle=200 hf freq=noraman IOP(7/33=1)
 ------------------------------------------------------
 1/10=4,30=1,38=1/1,3;
 2/12=2,17=6,18=5,40=1/2;
 3/6=3,11=9,16=1,25=1,30=1,71=2/1,2,3;
 4//1;
 5/5=2,7=200,38=5,98=1/2;
 8/6=4,10=90,11=11/1;
 11/6=1,8=1,9=11,15=111,16=1/1,2,10;
 10/6=1/2;
 6/7=2,8=2,9=2,10=2,18=1,28=1/1;
 7/8=1,10=1,25=1,33=1/1,2,3,16;
 1/10=4,30=1/3;
 99//99;
 Leave Link    1 at Sun Mar 22 16:36:11 2020, MaxMem=  131072000 cpu:       0.0
 (Enter C:\G09W\l101.exe)
 --
 T1
 --
 Charge =  0 Multiplicity = 1
 Symbolic Z-Matrix:
 H
 N                    1    B1
 C                    2    B2       1    A1
 O                    3    B3       2    A2       1    D1       0
       Variables:
  B1                    0.8585                   
  B2                    1.34746                  
  B3                    1.24805                  
  A1                  108.28418                  
  A2                  133.72258                  
  D1                  180.2575                   
 
 NAtoms=      4 NQM=        0 NQMF=       0 NMMI=      4 NMMIF=      0
                NMic=       0 NMicF=      0.
                    Isotopes and Nuclear Properties:
 (Nuclear quadrupole moments (NQMom) in fm**2, nuclear magnetic moments (NMagM)
  in nuclear magnetons)

  Atom         1           2           3           4
 IAtWgt=           1          14          12          16
 AtmWgt=   1.0078250  14.0030740  12.0000000  15.9949146
 NucSpn=           1           2           0           0
 AtZEff=   0.0000000   0.0000000   0.0000000   0.0000000
 NQMom=    0.0000000   2.0440000   0.0000000   0.0000000
 NMagM=    2.7928460   0.4037610   0.0000000   0.0000000
 Leave Link  101 at Sun Mar 22 16:36:11 2020, MaxMem=  131072000 cpu:       0.0
 (Enter C:\G09W\l103.exe)

 GradGradGradGradGradGradGradGradGradGradGradGradGradGradGradGradGradGrad
 Berny optimization.
 Initialization pass.
                       ----------------------------
                       !    Initial Parameters    !
                       ! (Angstroms and Degrees)  !
 ----------------------                            ----------------------
 !      Name          Value   Derivative information (Atomic Units)     !
 ------------------------------------------------------------------------
 !       B1          0.8585   calculate D2E/DX2 analytically            !
 !       B2          1.3475   calculate D2E/DX2 analytically            !
 !       B3          1.2481   calculate D2E/DX2 analytically            !
 !       A1        108.2842   calculate D2E/DX2 analytically            !
 !       A2        133.7226   calculate D2E/DX2 analytically            !
 !       D1        180.2575   calculate D2E/DX2 analytically            !
 ------------------------------------------------------------------------
 Trust Radius=3.00D-01 FncErr=1.00D-07 GrdErr=1.00D-07
 Number of steps in this run=      2 maximum allowed number of steps=      2.
 GradGradGradGradGradGradGradGradGradGradGradGradGradGradGradGradGradGrad

 Leave Link  103 at Sun Mar 22 16:36:11 2020, MaxMem=  131072000 cpu:       0.0
 (Enter C:\G09W\l202.exe)
                          Input orientation:                          
 ---------------------------------------------------------------------
 Center     Atomic      Atomic             Coordinates (Angstroms)
 Number     Number       Type             X           Y           Z
 ---------------------------------------------------------------------
      1          1           0        0.000000    0.000000    0.000000
      2          7           0        0.000000    0.000000    0.858504
      3          6           0        1.279430    0.000000    1.281243
      4          8           0        1.815521   -0.004054    2.408284
 ---------------------------------------------------------------------
                    Distance matrix (angstroms):
                    1          2          3          4
     1  H    0.000000
     2  N    0.858504   0.000000
     3  C    1.810670   1.347461   0.000000
     4  O    3.015952   2.387038   1.248051   0.000000
 Stoichiometry    CHNO
 Framework group  C1[X(CHNO)]
 Deg. of freedom     6
 Full point group                 C1      NOp   1
 Largest Abelian subgroup         C1      NOp   1
 Largest concise Abelian subgroup C1      NOp   1
                         Standard orientation:                         
 ---------------------------------------------------------------------
 Center     Atomic      Atomic             Coordinates (Angstroms)
 Number     Number       Type             X           Y           Z
 ---------------------------------------------------------------------
      1          1           0        1.758521    0.413431    0.002559
      2          7           0        1.175114   -0.216377   -0.000227
      3          6           0       -0.050774    0.342951   -0.000547
      4          8           0       -1.209960   -0.119562    0.000289
 ---------------------------------------------------------------------
 Rotational constants (GHZ):    206.1592008     11.0240029     10.4644403
 Leave Link  202 at Sun Mar 22 16:36:11 2020, MaxMem=  131072000 cpu:       0.0
 (Enter C:\G09W\l301.exe)
 Standard basis: STO-3G (5D, 7F)
 Ernie: Thresh=  0.10000D-02 Tol=  0.10000D-05 Strict=F.
 There are    16 symmetry adapted basis functions of A   symmetry.
 Integral buffers will be    262144 words long.
 Raffenetti 1 integral format.
 Two-electron integral symmetry is turned on.
    16 basis functions,    48 primitive gaussians,    16 cartesian basis functions
    11 alpha electrons       11 beta electrons
       nuclear repulsion energy        56.7329349055 Hartrees.
 IExCor=    0 DFT=F Ex=HF Corr=None ExCW=0 ScaHFX=  1.000000
 ScaDFX=  1.000000  1.000000  1.000000  1.000000 ScalE2=  1.000000  1.000000
 IRadAn=      0 IRanWt=     -1 IRanGd=            0 ICorTp=0
 NAtoms=    4 NActive=    4 NUniq=    4 SFac= 1.00D+00 NAtFMM=   60 NAOKFM=F Big=F
 Leave Link  301 at Sun Mar 22 16:36:12 2020, MaxMem=  131072000 cpu:       0.0
 (Enter C:\G09W\l302.exe)
 NPDir=0 NMtPBC=     1 NCelOv=     1 NCel=       1 NClECP=     1 NCelD=      1
         NCelK=      1 NCelE2=     1 NClLst=     1 CellRange=     0.0.
 One-electron integrals computed using PRISM.
 NBasis=    16 RedAO= T  NBF=    16
 NBsUse=    16 1.00D-06 NBFU=    16
 Leave Link  302 at Sun Mar 22 16:36:12 2020, MaxMem=  131072000 cpu:       0.0
 (Enter C:\G09W\l303.exe)
 DipDrv:  MaxL=1.
 Leave Link  303 at Sun Mar 22 16:36:12 2020, MaxMem=  131072000 cpu:       0.0
 (Enter C:\G09W\l401.exe)
 Harris functional with IExCor=  205 diagonalized for initial guess.
 ExpMin= 1.69D-01 ExpMax= 1.31D+02 ExpMxC= 1.31D+02 IAcc=1 IRadAn=         1 AccDes= 0.00D+00
 HarFok:  IExCor=  205 AccDes= 0.00D+00 IRadAn=         1 IDoV= 1
 ScaDFX=  1.000000  1.000000  1.000000  1.000000
 FoFCou: FMM=F IPFlag=           0 FMFlag=      100000 FMFlg1=           0
         NFxFlg=           0 DoJE=T BraDBF=F KetDBF=T FulRan=T
         Omega=  0.000000  0.000000  1.000000  0.000000  0.000000 ICntrl=     500 IOpCl=  0
         NMat0=    1 NMatS0=    1 NMatT0=    0 NMatD0=    1 NMtDS0=    0 NMtDT0=    0
         I1Cent=           4 NGrid=           0.
 Petite list used in FoFCou.
 Harris En= -165.467169552530    
 Initial guess orbital symmetries:
       Occupied  (A) (A) (A) (A) (A) (A) (A) (A) (A) (A) (A)
       Virtual   (A) (A) (A) (A) (A)
 The electronic state of the initial guess is 1-A.
 Leave Link  401 at Sun Mar 22 16:36:12 2020, MaxMem=  131072000 cpu:       0.0
 (Enter C:\G09W\l502.exe)
 Closed shell SCF:
 Requested convergence on RMS density matrix=1.00D-08 within 200 cycles.
 Requested convergence on MAX density matrix=1.00D-06.
 Requested convergence on             energy=1.00D-06.
 No special actions if energy rises.
 Using DIIS extrapolation, IDIIS=  1040.
 Integral symmetry usage will be decided dynamically.
 Keep R1 ints in memory in canonical form, NReq=853022.
 IEnd=       43692 IEndB=       43692 NGot=   131072000 MDV=   131059827
 LenX=   131059827 LenY=   131058945
 Symmetry not used in FoFDir.
 MinBra= 0 MaxBra= 1 Meth= 1.
 IRaf=       0 NMat=   1 IRICut=       1 DoRegI=T DoRafI=F ISym2E= 0 JSym2E=0.

 Cycle   1  Pass 1  IDiag  1:
 E= -165.342743791618    
 DIIS: error= 5.59D-02 at cycle   1 NSaved=   1.
 NSaved= 1 IEnMin= 1 EnMin= -165.342743791618     IErMin= 1 ErrMin= 5.59D-02
 ErrMax= 5.59D-02 EMaxC= 1.00D-01 BMatC= 6.18D-02 BMatP= 6.18D-02
 IDIUse=3 WtCom= 4.41D-01 WtEn= 5.59D-01
 Coeff-Com:  0.100D+01
 Coeff-En:   0.100D+01
 Coeff:      0.100D+01
 Gap=     0.387 Goal=   None    Shift=    0.000
 GapD=    0.387 DampG=1.000 DampE=0.500 DampFc=0.5000 IDamp=-1.
 Damping current iteration by 5.00D-01
 RMSDP=2.75D-02 MaxDP=1.44D-01              OVMax= 0.00D+00

 Cycle   2  Pass 1  IDiag  1:
 E= -165.372802902938     Delta-E=       -0.030059111321 Rises=F Damp=T
 DIIS: error= 1.97D-02 at cycle   2 NSaved=   2.
 NSaved= 2 IEnMin= 2 EnMin= -165.372802902938     IErMin= 2 ErrMin= 1.97D-02
 ErrMax= 1.97D-02 EMaxC= 1.00D-01 BMatC= 7.73D-03 BMatP= 6.18D-02
 IDIUse=3 WtCom= 8.03D-01 WtEn= 1.97D-01
 Coeff-Com: -0.264D+00 0.126D+01
 Coeff-En:   0.000D+00 0.100D+01
 Coeff:     -0.212D+00 0.121D+01
 Gap=     0.480 Goal=   None    Shift=    0.000
 RMSDP=6.74D-03 MaxDP=3.22D-02 DE=-3.01D-02 OVMax= 0.00D+00

 Cycle   3  Pass 1  IDiag  1:
 E= -165.404285685710     Delta-E=       -0.031482782772 Rises=F Damp=F
 DIIS: error= 8.15D-03 at cycle   3 NSaved=   3.
 NSaved= 3 IEnMin= 3 EnMin= -165.404285685710     IErMin= 3 ErrMin= 8.15D-03
 ErrMax= 8.15D-03 EMaxC= 1.00D-01 BMatC= 1.14D-03 BMatP= 7.73D-03
 IDIUse=3 WtCom= 9.19D-01 WtEn= 8.15D-02
 Coeff-Com: -0.138D+00 0.216D+00 0.922D+00
 Coeff-En:   0.000D+00 0.000D+00 0.100D+01
 Coeff:     -0.127D+00 0.198D+00 0.929D+00
 Gap=     0.485 Goal=   None    Shift=    0.000
 RMSDP=3.36D-03 MaxDP=1.97D-02 DE=-3.15D-02 OVMax= 0.00D+00

 Cycle   4  Pass 1  IDiag  1:
 E= -165.405967260488     Delta-E=       -0.001681574778 Rises=F Damp=F
 DIIS: error= 2.84D-03 at cycle   4 NSaved=   4.
 NSaved= 4 IEnMin= 4 EnMin= -165.405967260488     IErMin= 4 ErrMin= 2.84D-03
 ErrMax= 2.84D-03 EMaxC= 1.00D-01 BMatC= 2.58D-04 BMatP= 1.14D-03
 IDIUse=3 WtCom= 9.72D-01 WtEn= 2.84D-02
 Coeff-Com: -0.460D-01 0.713D-02 0.334D+00 0.705D+00
 Coeff-En:   0.000D+00 0.000D+00 0.000D+00 0.100D+01
 Coeff:     -0.447D-01 0.693D-02 0.324D+00 0.713D+00
 Gap=     0.487 Goal=   None    Shift=    0.000
 RMSDP=1.51D-03 MaxDP=1.10D-02 DE=-1.68D-03 OVMax= 0.00D+00

 Cycle   5  Pass 1  IDiag  1:
 E= -165.406357891186     Delta-E=       -0.000390630698 Rises=F Damp=F
 DIIS: error= 1.79D-03 at cycle   5 NSaved=   5.
 NSaved= 5 IEnMin= 5 EnMin= -165.406357891186     IErMin= 5 ErrMin= 1.79D-03
 ErrMax= 1.79D-03 EMaxC= 1.00D-01 BMatC= 3.57D-05 BMatP= 2.58D-04
 IDIUse=3 WtCom= 9.82D-01 WtEn= 1.79D-02
 Coeff-Com:  0.310D-01-0.372D-01-0.309D+00-0.607D-01 0.138D+01
 Coeff-En:   0.000D+00 0.000D+00 0.000D+00 0.000D+00 0.100D+01
 Coeff:      0.304D-01-0.365D-01-0.303D+00-0.596D-01 0.137D+01
 Gap=     0.489 Goal=   None    Shift=    0.000
 RMSDP=1.11D-03 MaxDP=6.63D-03 DE=-3.91D-04 OVMax= 0.00D+00

 Cycle   6  Pass 1  IDiag  1:
 E= -165.406483425530     Delta-E=       -0.000125534344 Rises=F Damp=F
 DIIS: error= 3.46D-04 at cycle   6 NSaved=   6.
 NSaved= 6 IEnMin= 6 EnMin= -165.406483425530     IErMin= 6 ErrMin= 3.46D-04
 ErrMax= 3.46D-04 EMaxC= 1.00D-01 BMatC= 2.04D-06 BMatP= 3.57D-05
 IDIUse=3 WtCom= 9.97D-01 WtEn= 3.46D-03
 Coeff-Com: -0.185D-01 0.234D-01 0.202D+00 0.344D-01-0.980D+00 0.174D+01
 Coeff-En:   0.000D+00 0.000D+00 0.000D+00 0.000D+00 0.000D+00 0.100D+01
 Coeff:     -0.184D-01 0.233D-01 0.202D+00 0.343D-01-0.976D+00 0.174D+01
 Gap=     0.490 Goal=   None    Shift=    0.000
 RMSDP=3.77D-04 MaxDP=2.61D-03 DE=-1.26D-04 OVMax= 0.00D+00

 Cycle   7  Pass 1  IDiag  1:
 E= -165.406498456256     Delta-E=       -0.000015030726 Rises=F Damp=F
 DIIS: error= 2.80D-04 at cycle   7 NSaved=   7.
 NSaved= 7 IEnMin= 7 EnMin= -165.406498456256     IErMin= 7 ErrMin= 2.80D-04
 ErrMax= 2.80D-04 EMaxC= 1.00D-01 BMatC= 6.11D-07 BMatP= 2.04D-06
 IDIUse=3 WtCom= 9.97D-01 WtEn= 2.80D-03
 Coeff-Com:  0.135D-01-0.168D-01-0.167D+00 0.771D-02 0.754D+00-0.189D+01
 Coeff-Com:  0.230D+01
 Coeff-En:   0.000D+00 0.000D+00 0.000D+00 0.000D+00 0.000D+00 0.000D+00
 Coeff-En:   0.100D+01
 Coeff:      0.135D-01-0.167D-01-0.166D+00 0.769D-02 0.752D+00-0.188D+01
 Coeff:      0.229D+01
 Gap=     0.490 Goal=   None    Shift=    0.000
 RMSDP=3.47D-04 MaxDP=2.08D-03 DE=-1.50D-05 OVMax= 0.00D+00

 Cycle   8  Pass 1  IDiag  1:
 E= -165.406504623941     Delta-E=       -0.000006167685 Rises=F Damp=F
 DIIS: error= 7.18D-05 at cycle   8 NSaved=   8.
 NSaved= 8 IEnMin= 8 EnMin= -165.406504623941     IErMin= 8 ErrMin= 7.18D-05
 ErrMax= 7.18D-05 EMaxC= 1.00D-01 BMatC= 9.17D-08 BMatP= 6.11D-07
 IDIUse=1 WtCom= 1.00D+00 WtEn= 0.00D+00
 Coeff-Com: -0.624D-02 0.702D-02 0.964D-01-0.377D-02-0.422D+00 0.114D+01
 Coeff-Com: -0.178D+01 0.197D+01
 Coeff:     -0.624D-02 0.702D-02 0.964D-01-0.377D-02-0.422D+00 0.114D+01
 Coeff:     -0.178D+01 0.197D+01
 Gap=     0.490 Goal=   None    Shift=    0.000
 RMSDP=1.61D-04 MaxDP=8.03D-04 DE=-6.17D-06 OVMax= 0.00D+00

 Cycle   9  Pass 1  IDiag  1:
 E= -165.406505612564     Delta-E=       -0.000000988623 Rises=F Damp=F
 DIIS: error= 2.55D-05 at cycle   9 NSaved=   9.
 NSaved= 9 IEnMin= 9 EnMin= -165.406505612564     IErMin= 9 ErrMin= 2.55D-05
 ErrMax= 2.55D-05 EMaxC= 1.00D-01 BMatC= 9.10D-09 BMatP= 9.17D-08
 IDIUse=1 WtCom= 1.00D+00 WtEn= 0.00D+00
 Coeff-Com:  0.122D-02-0.868D-03-0.304D-01-0.863D-03 0.130D+00-0.358D+00
 Coeff-Com:  0.646D+00-0.110D+01 0.171D+01
 Coeff:      0.122D-02-0.868D-03-0.304D-01-0.863D-03 0.130D+00-0.358D+00
 Coeff:      0.646D+00-0.110D+01 0.171D+01
 Gap=     0.490 Goal=   None    Shift=    0.000
 RMSDP=4.75D-05 MaxDP=2.85D-04 DE=-9.89D-07 OVMax= 0.00D+00

 Cycle  10  Pass 1  IDiag  1:
 E= -165.406505692758     Delta-E=       -0.000000080194 Rises=F Damp=F
 DIIS: error= 3.88D-06 at cycle  10 NSaved=  10.
 NSaved=10 IEnMin=10 EnMin= -165.406505692758     IErMin=10 ErrMin= 3.88D-06
 ErrMax= 3.88D-06 EMaxC= 1.00D-01 BMatC= 4.75D-10 BMatP= 9.10D-09
 IDIUse=1 WtCom= 1.00D+00 WtEn= 0.00D+00
 Coeff-Com: -0.115D-03-0.119D-03 0.761D-02 0.701D-03-0.312D-01 0.899D-01
 Coeff-Com: -0.194D+00 0.429D+00-0.906D+00 0.160D+01
 Coeff:     -0.115D-03-0.119D-03 0.761D-02 0.701D-03-0.312D-01 0.899D-01
 Coeff:     -0.194D+00 0.429D+00-0.906D+00 0.160D+01
 Gap=     0.490 Goal=   None    Shift=    0.000
 RMSDP=7.63D-06 MaxDP=3.79D-05 DE=-8.02D-08 OVMax= 0.00D+00

 Cycle  11  Pass 1  IDiag  1:
 E= -165.406505695609     Delta-E=       -0.000000002851 Rises=F Damp=F
 DIIS: error= 1.39D-06 at cycle  11 NSaved=  11.
 NSaved=11 IEnMin=11 EnMin= -165.406505695609     IErMin=11 ErrMin= 1.39D-06
 ErrMax= 1.39D-06 EMaxC= 1.00D-01 BMatC= 4.84D-11 BMatP= 4.75D-10
 IDIUse=1 WtCom= 1.00D+00 WtEn= 0.00D+00
 Coeff-Com:  0.107D-03-0.197D-04-0.401D-02-0.624D-03 0.173D-01-0.458D-01
 Coeff-Com:  0.928D-01-0.198D+00 0.425D+00-0.930D+00 0.164D+01
 Coeff:      0.107D-03-0.197D-04-0.401D-02-0.624D-03 0.173D-01-0.458D-01
 Coeff:      0.928D-01-0.198D+00 0.425D+00-0.930D+00 0.164D+01
 Gap=     0.490 Goal=   None    Shift=    0.000
 RMSDP=1.74D-06 MaxDP=7.79D-06 DE=-2.85D-09 OVMax= 0.00D+00

 Cycle  12  Pass 1  IDiag  1:
 E= -165.406505695841     Delta-E=       -0.000000000232 Rises=F Damp=F
 DIIS: error= 3.62D-07 at cycle  12 NSaved=  12.
 NSaved=12 IEnMin=12 EnMin= -165.406505695841     IErMin=12 ErrMin= 3.62D-07
 ErrMax= 3.62D-07 EMaxC= 1.00D-01 BMatC= 4.31D-12 BMatP= 4.84D-11
 IDIUse=1 WtCom= 1.00D+00 WtEn= 0.00D+00
 Coeff-Com:  0.109D-04-0.535D-04 0.805D-03 0.380D-03-0.364D-02 0.917D-02
 Coeff-Com: -0.234D-01 0.651D-01-0.161D+00 0.432D+00-0.111D+01 0.179D+01
 Coeff:      0.109D-04-0.535D-04 0.805D-03 0.380D-03-0.364D-02 0.917D-02
 Coeff:     -0.234D-01 0.651D-01-0.161D+00 0.432D+00-0.111D+01 0.179D+01
 Gap=     0.490 Goal=   None    Shift=    0.000
 RMSDP=6.56D-07 MaxDP=2.98D-06 DE=-2.32D-10 OVMax= 0.00D+00

 Cycle  13  Pass 1  IDiag  1:
 E= -165.406505695869     Delta-E=       -0.000000000028 Rises=F Damp=F
 DIIS: error= 2.42D-07 at cycle  13 NSaved=  13.
 NSaved=13 IEnMin=13 EnMin= -165.406505695869     IErMin=13 ErrMin= 2.42D-07
 ErrMax= 2.42D-07 EMaxC= 1.00D-01 BMatC= 6.21D-13 BMatP= 4.31D-12
 IDIUse=1 WtCom= 1.00D+00 WtEn= 0.00D+00
 Coeff-Com: -0.666D-05 0.170D-04-0.128D-03-0.134D-03 0.674D-03-0.149D-02
 Coeff-Com:  0.486D-02-0.164D-01 0.431D-01-0.127D+00 0.374D+00-0.727D+00
 Coeff-Com:  0.145D+01
 Coeff:     -0.666D-05 0.170D-04-0.128D-03-0.134D-03 0.674D-03-0.149D-02
 Coeff:      0.486D-02-0.164D-01 0.431D-01-0.127D+00 0.374D+00-0.727D+00
 Coeff:      0.145D+01
 Gap=     0.490 Goal=   None    Shift=    0.000
 RMSDP=2.04D-07 MaxDP=1.05D-06 DE=-2.76D-11 OVMax= 0.00D+00

 Cycle  14  Pass 1  IDiag  1:
 E= -165.406505695873     Delta-E=       -0.000000000004 Rises=F Damp=F
 DIIS: error= 1.82D-07 at cycle  14 NSaved=  14.
 NSaved=14 IEnMin=14 EnMin= -165.406505695873     IErMin=14 ErrMin= 1.82D-07
 ErrMax= 1.82D-07 EMaxC= 1.00D-01 BMatC= 2.72D-13 BMatP= 6.21D-13
 IDIUse=1 WtCom= 1.00D+00 WtEn= 0.00D+00
 Coeff-Com:  0.149D-06-0.117D-05 0.346D-04 0.138D-03-0.407D-03 0.517D-03
 Coeff-Com: -0.218D-02 0.970D-02-0.258D-01 0.867D-01-0.321D+00 0.785D+00
 Coeff-Com: -0.351D+01 0.397D+01
 Coeff:      0.149D-06-0.117D-05 0.346D-04 0.138D-03-0.407D-03 0.517D-03
 Coeff:     -0.218D-02 0.970D-02-0.258D-01 0.867D-01-0.321D+00 0.785D+00
 Coeff:     -0.351D+01 0.397D+01
 Gap=     0.490 Goal=   None    Shift=    0.000
 RMSDP=4.86D-07 MaxDP=2.58D-06 DE=-4.49D-12 OVMax= 0.00D+00

 Cycle  15  Pass 1  IDiag  1:
 E= -165.406505695879     Delta-E=       -0.000000000006 Rises=F Damp=F
 DIIS: error= 3.23D-08 at cycle  15 NSaved=  15.
 NSaved=15 IEnMin=15 EnMin= -165.406505695879     IErMin=15 ErrMin= 3.23D-08
 ErrMax= 3.23D-08 EMaxC= 1.00D-01 BMatC= 1.13D-14 BMatP= 2.72D-13
 IDIUse=1 WtCom= 1.00D+00 WtEn= 0.00D+00
 Coeff-Com:  0.826D-06-0.956D-06-0.149D-04-0.372D-04 0.141D-03-0.212D-03
 Coeff-Com:  0.631D-03-0.250D-02 0.623D-02-0.205D-01 0.773D-01-0.196D+00
 Coeff-Com:  0.102D+01-0.139D+01 0.150D+01
 Coeff:      0.826D-06-0.956D-06-0.149D-04-0.372D-04 0.141D-03-0.212D-03
 Coeff:      0.631D-03-0.250D-02 0.623D-02-0.205D-01 0.773D-01-0.196D+00
 Coeff:      0.102D+01-0.139D+01 0.150D+01
 Gap=     0.490 Goal=   None    Shift=    0.000
 RMSDP=1.03D-07 MaxDP=5.44D-07 DE=-5.54D-12 OVMax= 0.00D+00

 Cycle  16  Pass 1  IDiag  1:
 E= -165.406505695879     Delta-E=        0.000000000000 Rises=F Damp=F
 DIIS: error= 3.83D-09 at cycle  16 NSaved=  16.
 NSaved=16 IEnMin=16 EnMin= -165.406505695879     IErMin=16 ErrMin= 3.83D-09
 ErrMax= 3.83D-09 EMaxC= 1.00D-01 BMatC= 3.12D-16 BMatP= 1.13D-14
 IDIUse=1 WtCom= 1.00D+00 WtEn= 0.00D+00
 Large coefficients: NSaved= 16 BigCof=    0.00 CofMax=   10.00 Det=-2.93D-16
 Inversion failed.  Reducing to 15 matrices.
 Coeff-Com:  0.941D-07-0.133D-05 0.774D-05-0.111D-04-0.515D-05-0.456D-04
 Coeff-Com:  0.403D-03-0.110D-02 0.399D-02-0.167D-01 0.443D-01-0.251D+00
 Coeff-Com:  0.357D+00-0.464D+00 0.133D+01
 Coeff:      0.941D-07-0.133D-05 0.774D-05-0.111D-04-0.515D-05-0.456D-04
 Coeff:      0.403D-03-0.110D-02 0.399D-02-0.167D-01 0.443D-01-0.251D+00
 Coeff:      0.357D+00-0.464D+00 0.133D+01
 Gap=     0.490 Goal=   None    Shift=    0.000
 RMSDP=3.62D-09 MaxDP=1.46D-08 DE=-4.26D-13 OVMax= 0.00D+00

 SCF Done:  E(RHF) =  -165.406505696     A.U. after   16 cycles
             Convg  =    0.3617D-08             -V/T =  2.0083
 KE= 1.640413701035D+02 PE=-5.031881222670D+02 EE= 1.170073115621D+02
 Leave Link  502 at Sun Mar 22 16:36:13 2020, MaxMem=  131072000 cpu:       1.0
 (Enter C:\G09W\l801.exe)
 Range of M.O.s used for correlation:     1    16
 NBasis=    16 NAE=    11 NBE=    11 NFC=     0 NFV=     0
 NROrb=     16 NOA=    11 NOB=    11 NVA=     5 NVB=     5
 Leave Link  801 at Sun Mar 22 16:36:13 2020, MaxMem=  131072000 cpu:       0.0
 (Enter C:\G09W\l1101.exe)
 Using compressed storage, NAtomX=     4.
 Will process   5 centers per pass.
 Leave Link 1101 at Sun Mar 22 16:36:13 2020, MaxMem=  131072000 cpu:       0.0
 (Enter C:\G09W\l1102.exe)
 Symmetrizing basis deriv contribution to polar:
 IMax=3 JMax=2 DiffMx= 0.00D+00
 Leave Link 1102 at Sun Mar 22 16:36:13 2020, MaxMem=  131072000 cpu:       0.0
 (Enter C:\G09W\l1110.exe)
 Forming Gx(P) for the SCF density, NAtomX=     4.
 Integral derivatives from FoFDir/FoFCou, PRISM(SPDF).
 Do as many integral derivatives as possible in FoFDir.
 G2DrvN: MDV=     131071922.
 G2DrvN: will do     5 centers at a time, making    1 passes doing MaxLOS=1.
 Calling FoFCou, ICntrl=  3107 FMM=F I1Cent=   0 AccDes= 0.00D+00.
 FoFCou: FMM=F IPFlag=           0 FMFlag=      100000 FMFlg1=           0
         NFxFlg=           0 DoJE=F BraDBF=F KetDBF=F FulRan=T
         Omega=  0.000000  0.000000  1.000000  0.000000  0.000000 ICntrl=    3107 IOpCl=  0
         NMat0=    1 NMatS0=    1 NMatT0=    0 NMatD0=    1 NMtDS0=    0 NMtDT0=    0
         I1Cent=           0 NGrid=           0.
 Symmetry not used in FoFCou.
 FoFDir/FoFCou used for L=0 through L=1.
 End of G2Drv Frequency-dependent properties file   721 does not exist.
 End of G2Drv Frequency-dependent properties file   722 does not exist.
 Leave Link 1110 at Sun Mar 22 16:36:13 2020, MaxMem=  131072000 cpu:       0.0
 (Enter C:\G09W\l1002.exe)
 Minotr:  Closed shell wavefunction.
          IDoAtm=1111
          Direct CPHF calculation.
          Differentiating once with respect to electric field.
                with respect to dipole field.
          Differentiating once with respect to nuclear coordinates.
          Requested convergence is 1.0D-08 RMS, and 1.0D-07 maximum.
          Secondary convergence is 1.0D-12 RMS, and 1.0D-12 maximum.
          NewPWx=T KeepS1=F KeepF1=F KeepIn=T MapXYZ=F SortEE=F KeepMc=T.
          MDV=     131071968 using IRadAn=       2.
          Keep R1 ints in memory in canonical form, NReq=809601.
 Symmetry not used in FoFDir.
 MinBra= 0 MaxBra= 1 Meth= 1.
 IRaf=       0 NMat=   1 IRICut=       1 DoRegI=T DoRafI=F ISym2E= 0 JSym2E=0.
          Solving linear equations simultaneously, MaxMat=       0.
          There are    15 degrees of freedom in the 1st order CPHF.  IDoFFX=5.
     12 vectors produced by pass  0 Test12= 3.67D-16 6.67D-09 XBig12= 1.29D+01 2.55D+00.
 AX will form    12 AO Fock derivatives at one time.
     12 vectors produced by pass  1 Test12= 3.67D-16 6.67D-09 XBig12= 6.10D-01 3.15D-01.
     12 vectors produced by pass  2 Test12= 3.67D-16 6.67D-09 XBig12= 7.02D-03 3.53D-02.
     12 vectors produced by pass  3 Test12= 3.67D-16 6.67D-09 XBig12= 5.76D-06 1.11D-03.
      7 vectors produced by pass  4 Test12= 3.67D-16 6.67D-09 XBig12= 9.36D-09 5.96D-05.
 Inverted reduced A of dimension    55 with in-core refinement.
 FullF1:  Do perturbations    1 to     3.
 Isotropic polarizability for W=    0.000000       10.49 Bohr**3.
 End of Minotr Frequency-dependent properties file   721 does not exist.
 End of Minotr Frequency-dependent properties file   722 does not exist.
 Leave Link 1002 at Sun Mar 22 16:36:13 2020, MaxMem=  131072000 cpu:       0.0
 (Enter C:\G09W\l601.exe)
 Copying SCF densities to generalized density rwf, IOpCl= 0 IROHF=0.

 **********************************************************************

            Population analysis using the SCF density.

 **********************************************************************

 Orbital symmetries:
       Occupied  (A) (A) (A) (A) (A) (A) (A) (A) (A) (A) (A)
       Virtual   (A) (A) (A) (A) (A)
 The electronic state is 1-A.
 Alpha  occ. eigenvalues --  -20.37189 -15.33777 -11.20180  -1.37053  -1.16326
 Alpha  occ. eigenvalues --   -0.73989  -0.59589  -0.54900  -0.52162  -0.38149
 Alpha  occ. eigenvalues --   -0.33294
 Alpha virt. eigenvalues --    0.15718   0.27405   0.68402   0.88371   0.95044
          Condensed to atoms (all electrons):
              1          2          3          4
     1  H    0.494318   0.338610  -0.053739   0.001452
     2  N    0.338610   6.652214   0.428571  -0.020394
     3  C   -0.053739   0.428571   4.851420   0.437348
     4  O    0.001452  -0.020394   0.437348   7.738353
 Mulliken atomic charges:
              1
     1  H    0.219360
     2  N   -0.399001
     3  C    0.336400
     4  O   -0.156759
 Sum of Mulliken atomic charges =   0.00000
 Mulliken charges with hydrogens summed into heavy atoms:
              1
     2  N   -0.179640
     3  C    0.336400
     4  O   -0.156759
 Sum of Mulliken charges with hydrogens summed into heavy atoms =   0.00000
 APT atomic charges:
              1
     1  H    0.283767
     2  N   -0.554240
     3  C    0.571992
     4  O   -0.301520
 Sum of APT charges=   0.00000
 APT Atomic charges with hydrogens summed into heavy atoms:
              1
     1  H    0.000000
     2  N   -0.270472
     3  C    0.571992
     4  O   -0.301520
 Sum of APT charges=   0.00000
 Electronic spatial extent (au):  <R**2>=            126.0693
 Charge=              0.0000 electrons
 Dipole moment (field-independent basis, Debye):
    X=              0.4681    Y=              2.1051    Z=              0.0037  Tot=              2.1565
 Quadrupole moment (field-independent basis, Debye-Ang):
   XX=            -16.2647   YY=            -14.4865   ZZ=            -14.8703
   XY=              1.6504   XZ=              0.0099   YZ=              0.0011
 Traceless Quadrupole moment (field-independent basis, Debye-Ang):
   XX=             -1.0575   YY=              0.7206   ZZ=              0.3369
   XY=              1.6504   XZ=              0.0099   YZ=              0.0011
 Octapole moment (field-independent basis, Debye-Ang**2):
  XXX=              1.0685  YYY=             -0.0287  ZZZ=              0.0029  XYY=             -1.9035
  XXY=              2.6002  XXZ=              0.0159  XZZ=             -1.8427  YZZ=              0.0108
  YYZ=              0.0022  XYZ=              0.0003
 Hexadecapole moment (field-independent basis, Debye-Ang**3):
 XXXX=            -99.0736 YYYY=            -14.8204 ZZZZ=             -9.4778 XXXY=              4.4345
 XXXZ=              0.0257 YYYX=              1.5254 YYYZ=              0.0007 ZZZX=              0.0019
 ZZZY=              0.0002 XXYY=            -19.0406 XXZZ=            -19.1883 YYZZ=             -4.0658
 XXYZ=              0.0028 YYXZ=              0.0027 ZZXY=              0.3835
 N-N= 5.673293490554D+01 E-N=-5.031881222647D+02  KE= 1.640413701035D+02
  Exact polarizability:  21.317   0.056   6.884   0.013  -0.001   3.283
 Approx polarizability:  32.173  -0.777   8.473   0.004  -0.001   2.007
 No NMR shielding tensors so no spin-rotation constants.
 Leave Link  601 at Sun Mar 22 16:36:14 2020, MaxMem=  131072000 cpu:       0.0
 (Enter C:\G09W\l701.exe)
 Compute integral second derivatives.
 ... and contract with generalized density number  0.
 Entering OneElI...
 Calculate overlap and kinetic energy integrals
    NBasis =  16  MinDer = 2  MaxDer = 2
 Requested accuracy = 0.1000D-12
 PrsmSu:  NPrtUS=   1 ThrOK=F IAlg=1 NPAlg=1 LenDen=           0.
 Prism:   IPart=     0 DynPar=F LinDyn=F Incr=           1.
 PRISM was handed   131066935 working-precision words and    28 shell-pairs
 IPart=  0 NShTot=          28 NBatch=           8 AvBLen=         3.5
 PrSmSu:  NxtVal=              2.
 Entering OneElI...
 Calculate potential energy integrals
    NBasis =  16  MinDer = 2  MaxDer = 2
 Requested accuracy = 0.1000D-12
 PrsmSu:  NPrtUS=   1 ThrOK=F IAlg=1 NPAlg=1 LenDen=           0.
 Prism:   IPart=     0 DynPar=F LinDyn=F Incr=           1.
 PRISM was handed   131067121 working-precision words and    27 shell-pairs
 IPart=  0 NShTot=         108 NBatch=          27 AvBLen=         4.0
 PrSmSu:  NxtVal=              2.
 Polarizability after L701:
                1             2             3 
      1  0.213167D+02
      2  0.559960D-01  0.688406D+01
      3  0.133190D-01 -0.987416D-03  0.328316D+01
 Dipole Derivatives after L701:
                 1             2             3             4             5 
      1   0.477111D+00 -0.721701D-01  0.662377D-03 -0.991465D+00  0.354355D+00
      2  -0.108436D+00  0.190187D-01 -0.121458D-02  0.334376D-01 -0.696551D-01
      3  -0.483973D-03 -0.656924D-03  0.355173D+00  0.136091D-02  0.257109D-03
                 6             7             8             9            10 
      1  -0.262227D-03  0.121329D+01 -0.136082D+00 -0.132200D-02 -0.698933D+00
      2   0.141590D-02 -0.894319D-01  0.903462D-01  0.343107D-04  0.164431D+00
      3  -0.601599D+00 -0.100530D-02  0.415956D-03  0.412343D+00  0.128362D-03
                11            12 
      1  -0.146102D+00  0.921853D-03
      2  -0.397098D-01 -0.235629D-03
      3  -0.161408D-04 -0.165917D+00
 Hessian after L701:
                1             2             3             4             5 
      1  0.373076D+01
      2  0.341761D+00  0.315272D+01
      3  0.196553D-02  0.708582D-03  0.289533D+01
      4 -0.348170D+01 -0.431428D+00 -0.168456D-02  0.192607D+01
      5 -0.286739D+00 -0.327541D+01 -0.627584D-03  0.416917D+01  0.820297D+01
      6 -0.107171D-02 -0.881304D-03 -0.297821D+01 -0.104982D-02 -0.187171D-02
      7 -0.342218D+00  0.207237D-01 -0.570373D-03  0.659691D+00 -0.362671D+01
      8 -0.109112D+00  0.133968D+00 -0.162886D-03 -0.382782D+01 -0.438967D+01
      9 -0.106658D-02  0.158204D-03  0.112936D+00  0.326650D-02  0.242294D-02
     10  0.931599D-01  0.689432D-01  0.289401D-03  0.895933D+00 -0.255717D+00
     11  0.540895D-01 -0.112693D-01  0.818868D-04  0.900856D-01 -0.537887D+00
     12  0.172761D-03  0.145173D-04 -0.300606D-01 -0.532124D-03  0.763514D-04
                6             7             8             9            10 
      6  0.107251D+02
      7  0.246217D-02 -0.187657D+01
      8  0.288457D-02 -0.942027D+00  0.121693D+02
      9 -0.729264D+01  0.548995D-02  0.415748D-02  0.162041D+02
     10 -0.340643D-03  0.155910D+01  0.487896D+01 -0.768987D-02 -0.254819D+01
     11 -0.131553D-03  0.454801D+01 -0.791357D+01 -0.673862D-02 -0.469219D+01
     12 -0.454213D+00 -0.738175D-02 -0.687916D-02 -0.902443D+01  0.774111D-02
               11            12 
     11  0.846272D+01
     12  0.678829D-02  0.950870D+01
 Leave Link  701 at Sun Mar 22 16:36:14 2020, MaxMem=  131072000 cpu:       0.0
 (Enter C:\G09W\l702.exe)
 L702 exits ... SP integral derivatives will be done elsewhere.
 Leave Link  702 at Sun Mar 22 16:36:14 2020, MaxMem=  131072000 cpu:       0.0
 (Enter C:\G09W\l703.exe)
 Compute integral second derivatives, UseDBF=F ICtDFT=           0.
 Integral derivatives from FoFDir, PRISM(SPDF).
 ICntrl=    100127.
 Calling FoFJK, ICntrl=    100127 FMM=F ISym2X=0 I1Cent= 0 IOpClX= 0 NMat=1 NMatS=1 NMatT=0.
 FoFJK:  IHMeth= 1 ICntrl=100127 DoSepK=F KAlg= 1 I1Cent= 0 FoldK=F
 FoFCou: FMM=F IPFlag=           0 FMFlag=      100000 FMFlg1=         800
         NFxFlg=           0 DoJE=F BraDBF=F KetDBF=F FulRan=T
         Omega=  0.000000  0.000000  1.000000  0.000000  0.000000 ICntrl=  100127 IOpCl=  0
         NMat0=    1 NMatS0=    1 NMatT0=    0 NMatD0=    1 NMtDS0=    0 NMtDT0=    0
         I1Cent=           0 NGrid=           0.
 Symmetry not used in FoFCou.
 FoFCou:  KetSym=F NOpSet=  1 NOpAb=1 NOp=  1.
 FoFCou:  CnvScl= 1.00D+00 Thresh= 1.00D-10
 PrismS was handed   131066980 working-precision words and    27 shell-pairs
 FoFCou: LinMIO=F DoNuc=F BraDBF=F KetDBF=F HaveP=T PDBF=F HaveZ=T HaveW=F
         NIJTC =       3 NIJTAt=       0 NIJTCD=       0 NIJTT =       3
         IJTBeg=       1 IJTEnd=       3 KLTBeg=       1 KLTEnd=       3
         IPTBeg=       1 IPTEnd=       3 IPTBCv=       1 IPTECv=       3
         IZTBeg=       1 IZTEnd=       3 IZTBCv=       1 IZTECv=       3
         IWTBeg=       4 IWTEnd=       3 IWTBCv=       4 IWTECv=       3
         INTBeg=       1 INTEnd=       0 IFTBCv=       1 IFTECv=       3
 NCel replicated for PrismC:     1
 CoulSu:  IncDef=  1024 NBBP=            378 NTPThr=   100 NPartT=    1 Incr=           3 LDynOK=F.
 CoulSu:  NPrtUS=   1 ThrOK=F IAlg=1 NPAlg=1 LenDen=           0.
 Enter PrismC: JobTyp=22 DoJE=F Cont=F.
 PrismC:  IPart=     0 DynPar=F LinDyn=F Incr=           3 UseFst=F UseS4=T.
 PrismC was handed   131066934 working-precision words and    27 shell-pairs
 IPart=  0 NShTot=         374 NShNF=         374 NShFF=           0 NBatch=          43 AvBLen=         8.7
 CoulSu:  NxtVal=              4.
 Polarizability after L703:
                1             2             3 
      1  0.213167D+02
      2  0.559960D-01  0.688406D+01
      3  0.133190D-01 -0.987416D-03  0.328316D+01
 Dipole Derivatives after L703:
                 1             2             3             4             5 
      1   0.477111D+00 -0.721701D-01  0.662377D-03 -0.991465D+00  0.354355D+00
      2  -0.108436D+00  0.190187D-01 -0.121458D-02  0.334376D-01 -0.696551D-01
      3  -0.483973D-03 -0.656924D-03  0.355173D+00  0.136091D-02  0.257109D-03
                 6             7             8             9            10 
      1  -0.262227D-03  0.121329D+01 -0.136082D+00 -0.132200D-02 -0.698933D+00
      2   0.141590D-02 -0.894319D-01  0.903462D-01  0.343107D-04  0.164431D+00
      3  -0.601599D+00 -0.100530D-02  0.415956D-03  0.412343D+00  0.128362D-03
                11            12 
      1  -0.146102D+00  0.921853D-03
      2  -0.397098D-01 -0.235629D-03
      3  -0.161408D-04 -0.165917D+00
 Hessian after L703:
                1             2             3             4             5 
      1  0.662161D+00
      2  0.793211D+00  0.701210D+00
      3  0.371015D-02  0.383776D-02 -0.192383D+00
      4 -0.596385D+00 -0.860631D+00 -0.389372D-02  0.100887D+01
      5 -0.754718D+00 -0.700099D+00 -0.370670D-02  0.773680D+00  0.781024D+00
      6 -0.351815D-02 -0.392285D-02  0.187182D+00  0.388726D-02  0.385465D-02
      7 -0.664015D-01  0.588560D-01  0.148783D-03 -0.232043D+00 -0.269178D-01
      8 -0.460288D-01 -0.393447D-02 -0.110674D-03  0.931835D-01 -0.103942D+00
      9 -0.192662D-03  0.137979D-03 -0.128192D-02  0.441094D-04 -0.242208D-03
     10  0.625378D-03  0.856395D-02  0.347880D-04 -0.180438D+00  0.795524D-02
     11  0.753507D-02  0.282332D-02 -0.203868D-04 -0.623237D-02  0.230169D-01
     12  0.000000D+00 -0.528880D-04  0.648327D-02 -0.376437D-04  0.942515D-04
                6             7             8             9            10 
      6 -0.132772D+00
      7 -0.347628D-03  0.793859D+00
      8  0.336343D-04  0.137150D+00  0.264355D+00
      9 -0.735788D-01 -0.173229D-03 -0.163759D-04  0.169313D+00
     10 -0.214794D-04 -0.495414D+00 -0.184305D+00  0.321782D-03  0.675227D+00
     11  0.345606D-04 -0.169088D+00 -0.156479D+00  0.120605D-03  0.167785D+00
     12  0.191685D-01  0.372074D-03  0.934153D-04 -0.944527D-01 -0.335090D-03
               11            12 
     11  0.130639D+00
     12 -0.134779D-03  0.688009D-01
 Leave Link  703 at Sun Mar 22 16:36:15 2020, MaxMem=  131072000 cpu:       1.0
 (Enter C:\G09W\l716.exe)
 FrcOut:
 IF    =    27 IFX   =    39 IFXYZ =    51
 IFFX  =    63 IFFFX =   141 IFLen =    12
 IFFLen=    78 IFFFLn=     0 IEDerv=   141
 LEDerv=   629 IFroze=   774 ICStrt=  1367
 Dipole        = 1.84151090D-01 8.28199176D-01 1.45919386D-03
 DipoleDeriv   = 4.77110543D-01-1.08436313D-01-4.83972534D-04
                -7.21700747D-02 1.90186865D-02-6.56924117D-04
                 6.62376668D-04-1.21458461D-03 3.55172667D-01
                -9.91465141D-01 3.34375926D-02 1.36090781D-03
                 3.54355014D-01-6.96551371D-02 2.57108630D-04
                -2.62226924D-04 1.41590330D-03-6.01598645D-01
                 1.21328762D+00-8.94319421D-02-1.00529704D-03
                -1.36082468D-01 9.03462336D-02 4.15956243D-04
                -1.32200310D-03 3.43107166D-05 4.12342554D-01
                -6.98933022D-01 1.64430663D-01 1.28361766D-04
                -1.46102472D-01-3.97097831D-02-1.61407563D-05
                 9.21853352D-04-2.35629407D-04-1.65916577D-01
 Polarizability= 2.13166656D+01 5.59960154D-02 6.88406480D+00
                 1.33190484D-02-9.87415763D-04 3.28316037D+00
 HyperPolar    =-7.55477391D+00 2.55832162D+01-3.86341851D+00
                 5.63053533D+00-7.63257002D-02 7.66718461D-02
                -1.85943930D-02-1.37609023D+01 4.36854630D+00
                 7.67829203D-04
 VibFq2-Diag1:  N=     12 IV=           3 MDV=   131069929 NE2=    10922493
 Full mass-weighted force constant matrix:
 Low frequencies ----2320.0931-1850.2363   -0.0013   -0.0012   -0.0009  235.9707
 Low frequencies ---  320.3857  720.0263  777.5300
 OrtVCM:  Ph=1 IPass= 1 DotMx1= 0.00D+00
 OrtVCM:  IS=    1 I=    1 IndO=    1 Dot= 1.00D+00 DotN= 1.00D+00 ElMax1= 6.10D-01 ElMax1N= 6.10D-01
 OrtVCM:  Ph=2 NNew=    0 IAdd=    2 IPass= 1 DotMx2= 0.00D+00
 OrtVCM:  IS=    1 I=    2 IndO=    2 Dot= 1.00D+00 DotN= 1.00D+00 ElMax1= 6.10D-01 ElMax1N= 6.10D-01
 OrtVCM:  Ph=2 NNew=    0 IAdd=    3 IPass= 1 DotMx2= 0.00D+00
 OrtVCM:  IS=    1 I=    3 IndO=    3 Dot= 1.00D+00 DotN= 1.00D+00 ElMax1= 6.10D-01 ElMax1N= 6.10D-01
 OrtVCM:  Ph=2 NNew=    0 IAdd=    4 IPass= 1 DotMx2= 2.78D-17
 OrtVCM:  IS=    1 I=    4 IndO=    4 Dot= 1.00D+00 DotN= 1.00D+00 ElMax1= 7.79D-01 ElMax1N= 7.79D-01
 OrtVCM:  Ph=2 NNew=    0 IAdd=    5 IPass= 1 DotMx2= 2.22D-16
 OrtVCM:  IS=    1 I=    5 IndO=    5 Dot= 1.00D+00 DotN= 1.00D+00 ElMax1= 6.90D-01 ElMax1N= 6.90D-01
 OrtVCM:  Ph=2 NNew=    0 IAdd=    6 IPass= 1 DotMx2= 1.11D-16
 OrtVCM:  IS=    1 I=    6 IndO=    6 Dot= 1.00D+00 DotN= 1.00D+00 ElMax1= 6.73D-01 ElMax1N= 6.73D-01
 OrtVCM:  Ph=1 IPass= 1 DotMx1= 6.74D-01
 OrtVCM:  Ph=1 IPass= 2 DotMx1= 2.22D-16
 OrtVCM:  IS=    1 I=    1 IndO=    7 Dot= 9.73D-01 DotN= 9.73D-01 ElMax1= 9.73D-01 ElMax1N= 9.73D-01
 OrtVCM:  Ph=2 NNew=    0 IAdd=    2 IPass= 1 DotMx2= 1.61D-02
 OrtVCM:  Ph=2 NNew=    0 IAdd=    2 IPass= 2 DotMx2= 8.03D-18
 OrtVCM:  IS=    1 I=    2 IndO=    8 Dot= 9.09D-01 DotN= 9.09D-01 ElMax1= 9.09D-01 ElMax1N= 9.09D-01
 OrtVCM:  Ph=2 NNew=    0 IAdd=    3 IPass= 1 DotMx2= 5.40D-04
 OrtVCM:  Ph=2 NNew=    0 IAdd=    3 IPass= 2 DotMx2= 8.13D-20
 OrtVCM:  IS=    1 I=    3 IndO=    9 Dot= 8.21D-01 DotN= 8.21D-01 ElMax1= 8.21D-01 ElMax1N= 8.21D-01
 OrtVCM:  Ph=2 NNew=    0 IAdd=    4 IPass= 1 DotMx2= 8.17D-02
 OrtVCM:  Ph=2 NNew=    0 IAdd=    4 IPass= 2 DotMx2= 2.14D-17
 OrtVCM:  IS=    1 I=    4 IndO=   10 Dot= 6.54D-01 DotN= 6.54D-01 ElMax1= 6.54D-01 ElMax1N= 6.54D-01
 OrtVCM:  Ph=2 NNew=    0 IAdd=    5 IPass= 1 DotMx2= 2.71D-01
 OrtVCM:  Ph=2 NNew=    0 IAdd=    5 IPass= 2 DotMx2= 4.22D-17
 OrtVCM:  IS=    1 I=    5 IndO=   11 Dot= 1.62D-01 DotN= 1.62D-01 ElMax1= 3.21D-01 ElMax1N= 3.21D-01
 OrtVCM:  Ph=2 NNew=    0 IAdd=    6 IPass= 1 DotMx2= 1.51D-01
 OrtVCM:  Ph=2 NNew=    0 IAdd=    6 IPass= 2 DotMx2= 4.18D-17
 OrtVCM:  IS=    1 I=    6 IndO=    0 Dot= 6.74D-34 DotN= 6.74D-34 ElMax1= 1.92D-17 ElMax1N= 1.92D-17
 SchOr2:  IPass= 1 Test2A= 1.00D-01 IOff=     0 NDo=     6 NNew=     5
 OrtVCM:  Ph=1 IPass= 1 DotMx1= 5.28D-01
 OrtVCM:  Ph=1 IPass= 2 DotMx1= 2.78D-16
 OrtVCM:  IS=    1 I=    1 IndO=   12 Dot= 4.93D-01 DotN= 4.93D-01 ElMax1= 4.93D-01 ElMax1N= 4.93D-01
 SchOr2:  IPass= 1 Test2A= 1.00D-01 IOff=     6 NDo=     1 NNew=     1
 VibFq2-Diag2:  N=      6 IV=           3 MDV=   131069929 NE2=    21844987
 ******    2 imaginary frequencies (negative Signs) ****** 
 Dipole derivatives wrt mode   1: -4.82762D-02 -2.34739D-02  9.25185D+00
 Vibrational polarizability contributions from mode   1       0.0000141       0.0000033       0.5195556
 Vibrational hyperpolarizability contributions from mode   1       0.0000000       0.0000000       0.0000000
 Dipole derivatives wrt mode   2: -1.47976D+01  2.73869D+00 -1.63368D-02
 Vibrational polarizability contributions from mode   2       1.7899748       0.0613131       0.0000022
 Vibrational hyperpolarizability contributions from mode   2       0.0000000       0.0000000       0.0000000
 Dipole derivatives wrt mode   3:  5.06956D+00 -1.76829D+00  1.21812D-03
 Vibrational polarizability contributions from mode   3       1.1456806       0.1393895       0.0000001
 Vibrational hyperpolarizability contributions from mode   3       0.0000000       0.0000000       0.0000000
 Dipole derivatives wrt mode   4: -2.49507D+00 -8.50277D-01  5.39179D-03
 Vibrational polarizability contributions from mode   4       0.1250623       0.0145239       0.0000006
 Vibrational hyperpolarizability contributions from mode   4       0.0000000       0.0000000       0.0000000
 Dipole derivatives wrt mode   5:  1.05466D+01 -6.30257D-01 -8.42330D-03
 Vibrational polarizability contributions from mode   5       1.0997506       0.0039274       0.0000007
 Vibrational hyperpolarizability contributions from mode   5       0.0000000       0.0000000       0.0000000
 Dipole derivatives wrt mode   6:  9.41144D+00 -1.80501D+00  1.15211D-02
 Vibrational polarizability contributions from mode   6       0.0575416       0.0021166       0.0000001
 Vibrational hyperpolarizability contributions from mode   6       0.0000000       0.0000000       0.0000000
 Diagonal vibrational polarizability:
        4.2180241       0.2212737       0.5195592
 NorSel:  MapVib=      1      2      3      4      5      6
 Harmonic frequencies (cm**-1), IR intensities (KM/Mole), Raman scattering
 activities (A**4/AMU), depolarization ratios for plane and unpolarized
 incident light, reduced masses (AMU), force constants (mDyne/A),
 and normal coordinates:
                           1         2         3         4         5
                           A         A         A         A         A
       Frequencies --- -2105.6161-1814.4008  776.9720 1157.4053 1649.8101
    Reduced masses ---     1.2066    1.1818   11.2968    7.1513   10.6020
   Force constants ---     3.1518    2.2922    4.0181    5.6442   17.0022
    IR Intensities ---    85.5996  226.4685   28.8273    6.9484  111.6291
 Coord Atom Element:
   1     1     1         -0.00424  -0.71029   0.36089   0.68523  -0.37402
   2     1     1         -0.00014   0.69437   0.10728  -0.25180   0.25373
   3     1     1          0.99167  -0.00258  -0.00028  -0.00015   0.00030
   1     2     7          0.00041   0.07766   0.16378   0.50662  -0.12531
   2     2     7         -0.00002  -0.07164   0.32450  -0.10570   0.00815
   3     2     7         -0.04435  -0.00010  -0.00040   0.00013  -0.00010
   1     3     6         -0.00012  -0.02178   0.14405  -0.19446   0.72795
   2     3     6         -0.00018  -0.02103  -0.74674   0.20743   0.21409
   3     3     6         -0.10681   0.00064   0.00090  -0.00029  -0.00035
   1     4     8          0.00000  -0.00689  -0.27420  -0.34082  -0.41286
   2     4     8          0.00016   0.03474   0.26939  -0.04722  -0.18374
   3     4     8          0.05647  -0.00024  -0.00030   0.00011   0.00033
                           6
                           A
       Frequencies ---  6436.2313
    Reduced masses ---     1.0744
   Force constants ---    26.2223
    IR Intensities ---    91.8334
 Coord Atom Element:
   1     1     1          0.69375
   2     1     1          0.71665
   3     1     1          0.00320
   1     2     7         -0.05105
   2     2     7         -0.05012
   3     2     7         -0.00023
   1     3     6          0.00043
   2     3     6         -0.00185
   3     3     6          0.00000
   1     4     8          0.00065
   2     4     8          0.00011
   3     4     8          0.00000
 Harmonic frequencies (cm**-1), IR intensities (KM/Mole), Raman scattering
 activities (A**4/AMU), depolarization ratios for plane and unpolarized
 incident light, reduced masses (AMU), force constants (mDyne/A),
 and normal coordinates:
                     1                      2                      3
                     A                      A                      A
 Frequencies -- -2105.6161             -1814.4008               776.9720
 Red. masses --     1.2066                 1.1818                11.2968
 Frc consts  --     3.1518                 2.2922                 4.0181
 IR Inten    --    85.5996               226.4685                28.8273
  Atom  AN      X      Y      Z        X      Y      Z        X      Y      Z
     1   1     0.00   0.00   0.99    -0.71   0.69   0.00     0.36   0.11   0.00
     2   7     0.00   0.00  -0.04     0.08  -0.07   0.00     0.16   0.32   0.00
     3   6     0.00   0.00  -0.11    -0.02  -0.02   0.00     0.14  -0.75   0.00
     4   8     0.00   0.00   0.06    -0.01   0.03   0.00    -0.27   0.27   0.00
                     4                      5                      6
                     A                      A                      A
 Frequencies --  1157.4053              1649.8101              6436.2313
 Red. masses --     7.1513                10.6020                 1.0744
 Frc consts  --     5.6442                17.0022                26.2223
 IR Inten    --     6.9484               111.6291                91.8334
  Atom  AN      X      Y      Z        X      Y      Z        X      Y      Z
     1   1     0.69  -0.25   0.00    -0.37   0.25   0.00     0.69   0.72   0.00
     2   7     0.51  -0.11   0.00    -0.13   0.01   0.00    -0.05  -0.05   0.00
     3   6    -0.19   0.21   0.00     0.73   0.21   0.00     0.00   0.00   0.00
     4   8    -0.34  -0.05   0.00    -0.41  -0.18   0.00     0.00   0.00   0.00

 -------------------
 - Thermochemistry -
 -------------------
 Temperature   298.150 Kelvin.  Pressure   1.00000 Atm.
 Atom     1 has atomic number  1 and mass   1.00783
 Atom     2 has atomic number  7 and mass  14.00307
 Atom     3 has atomic number  6 and mass  12.00000
 Atom     4 has atomic number  8 and mass  15.99491
 Molecular mass:    43.00581 amu.
 Principal axes and moments of inertia in atomic units:
                           1         2         3
     Eigenvalues --     8.75411 163.71015 172.46419
           X            0.99985   0.01704   0.00011
           Y           -0.01704   0.99985   0.00047
           Z           -0.00010  -0.00047   1.00000
 This molecule is an asymmetric top.
 Rotational symmetry number  1.
 Rotational temperatures (Kelvin)      9.89407     0.52907     0.50221
 Rotational constants (GHZ):         206.15920    11.02400    10.46444
    2 imaginary frequencies ignored.
 Zero-point vibrational energy      59935.4 (Joules/Mol)
                                   14.32491 (Kcal/Mol)
 Vibrational temperatures:   1117.89  1665.25  2373.71  9260.29
          (Kelvin)
 
 Zero-point correction=                           0.022828 (Hartree/Particle)
 Thermal correction to Energy=                    0.025769
 Thermal correction to Enthalpy=                  0.026713
 Thermal correction to Gibbs Free Energy=        -0.000667
 Sum of electronic and zero-point Energies=           -165.383678
 Sum of electronic and thermal Energies=              -165.380737
 Sum of electronic and thermal Enthalpies=            -165.379793
 Sum of electronic and thermal Free Energies=         -165.407173
 
                     E (Thermal)             CV                S
                      KCal/Mol        Cal/Mol-Kelvin    Cal/Mol-Kelvin
 Total                   16.170              6.929             57.626
 Electronic               0.000              0.000              0.000
 Translational            0.889              2.981             37.203
 Rotational               0.889              2.981             20.141
 Vibrational             14.393              0.968              0.282
                       Q            Log10(Q)             Ln(Q)
 Total Bot       0.202766D+01          0.306994          0.706880
 Total V=0       0.641522D+11         10.807212         24.884525
 Vib (Bot)       0.325019D-10        -10.488092        -24.149723
 Vib (V=0)       0.102831D+01          0.012126          0.027921
 Electronic      0.100000D+01          0.000000          0.000000
 Translational   0.110853D+08          7.044746         16.221127
 Rotational      0.562781D+04          3.750340          8.635476
 
                                                                  T1
                                                             IR Spectrum
 
     6                                                                                              1         1                      
     4                                                                                              6         1      7               
     3                                                                                              5         5      7               
     6                                                                                              0         7      7               
 
     X                                                                                              X         X      X               
     X                                                                                              X                X               
     X                                                                                              X                X               
     X                                                                                              X                X               
     X                                                                                              X                X               
     X                                                                                              X                                
     X                                                                                              X                                
     X                                                                                              X                                
     X                                                                                              X                                
     X                                                                                              X                                
     X                                                                                              X                                
     X                                                                                              X                                
     X                                                                                              X                                
     X                                                                                              X                                
     X                                                                                              X                                
     X                                                                                              X                                
                                                                                                    X                                
                                                                                                    X                                
                                                                                                    X                                
                                                                                                    X                                
 
 Forces in standard orientation:
 -------------------------------------------------------------------
 Center     Atomic                   Forces (Hartrees/Bohr)
 Number     Number              X              Y              Z
 -------------------------------------------------------------------
      1        1          -0.238369304   -0.229156817   -0.001006066
      2        7           0.290439734    0.148533773    0.001048956
      3        6           0.032068210    0.160153355   -0.000201254
      4        8          -0.084138640   -0.079530310    0.000158365
 -------------------------------------------------------------------
 ***** Axes restored to original set *****
 Rotating derivatives, DoTrsp=F IDiff=-2 LEDeriv=    629 LFDPrp=       0 LDFDPr=       0.
 -------------------------------------------------------------------
 Center     Atomic                   Forces (Hartrees/Bohr)
 Number     Number              X              Y              Z
 -------------------------------------------------------------------
      1        1          -0.019144176    0.000049664   -0.330101927
      2        7           0.112132330    0.000146831    0.306341215
      3        6          -0.085308440   -0.000723516    0.139281923
      4        8          -0.007679713    0.000527021   -0.115521211
 -------------------------------------------------------------------
 Cartesian Forces:  Max     0.330101927 RMS     0.146012077
 From PutF, contents of force:
   1    0.3301019267D+00
   2   -0.8083892662D-01
   3   -0.1076208322D+00
   4    0.3105832336D-01
   5    0.1006756645D+00
   6   -0.7650373126D-04
 -----------------------------------------------------------------------------------------------
                       Internal Coordinate Forces (Hartree/Bohr or radian)
  Cent   Atom   N1       Length/X         N2         Alpha/Y        N3         Beta/Z          J
 -----------------------------------------------------------------------------------------------
      1  H 
      2  N        1   0.330102(     1)
      3  C        2  -0.080839(     2)      1   0.031058(     4)
      4  O        3  -0.107621(     3)      2   0.100676(     5)      1  -0.000077(     6)     0
 -----------------------------------------------------------------------------------------------
 Internal  Forces:  Max     0.330101927 RMS     0.151758949
 Force constants in Cartesian coordinates: 
                1             2             3             4             5 
      1 -0.110700D+00
      2  0.475442D-04 -0.192400D+00
      3  0.411192D-01 -0.386702D-04  0.147409D+01
      4  0.161034D+00 -0.154764D-03 -0.629434D-01  0.132227D+00
      5 -0.761356D-04  0.187199D+00  0.181617D-04 -0.110285D-03 -0.132789D+00
      6  0.429712D-01  0.861875D-05 -0.145754D+01  0.172683D+00 -0.200142D-03
      7 -0.439486D-01  0.785382D-04  0.217905D-01 -0.205921D+00  0.726994D-05
      8  0.000000D+00 -0.128206D-02  0.697086D-04  0.922690D-04 -0.735781D-01
      9 -0.830952D-01  0.330620D-04 -0.263872D-01 -0.128158D-02 -0.292680D-04
     10 -0.638564D-02  0.286818D-04  0.336746D-04 -0.873402D-01  0.179150D-03
     11  0.290712D-04  0.648345D-02 -0.492001D-04  0.172780D-03  0.191677D-01
     12 -0.995240D-03 -0.301054D-05  0.983415D-02 -0.108458D+00  0.211249D-03
                6             7             8             9            10 
      6  0.165768D+01
      7 -0.121384D+00  0.412581D+00
      8 -0.641995D-04 -0.806727D-03  0.169318D+00
      9 -0.130064D+00  0.274453D+00 -0.145008D-02  0.645628D+00
     10 -0.942708D-01 -0.162712D+00  0.714938D-03 -0.190077D+00  0.256437D+00
     11  0.255723D-03  0.720919D-03 -0.944577D-01  0.144629D-02 -0.922770D-03
     12 -0.700807D-01 -0.174860D+00  0.144457D-02 -0.489176D+00  0.284314D+00
               11            12 
     11  0.688065D-01
     12 -0.165281D-02  0.549423D+00
 FCInt: Cartesian first derivatives: 
                 1             2             3             4 
      1  -0.191442D-01  0.112132D+00 -0.853084D-01 -0.767971D-02
      2   0.496641D-04  0.146831D-03 -0.723516D-03  0.527021D-03
      3  -0.330102D+00  0.306341D+00  0.139282D+00 -0.115521D+00
 FCInt: Cartesian force constants: 
                1             2             3             4             5 
      1 -0.110700D+00
      2  0.475442D-04 -0.192400D+00
      3  0.411192D-01 -0.386702D-04  0.147409D+01
      4  0.161034D+00 -0.154764D-03 -0.629434D-01  0.132227D+00
      5 -0.761356D-04  0.187199D+00  0.181617D-04 -0.110285D-03 -0.132789D+00
      6  0.429712D-01  0.861875D-05 -0.145754D+01  0.172683D+00 -0.200142D-03
      7 -0.439486D-01  0.785382D-04  0.217905D-01 -0.205921D+00  0.726994D-05
      8  0.000000D+00 -0.128206D-02  0.697086D-04  0.922690D-04 -0.735781D-01
      9 -0.830952D-01  0.330620D-04 -0.263872D-01 -0.128158D-02 -0.292680D-04
     10 -0.638564D-02  0.286818D-04  0.336746D-04 -0.873402D-01  0.179150D-03
     11  0.290712D-04  0.648345D-02 -0.492001D-04  0.172780D-03  0.191677D-01
     12 -0.995240D-03 -0.301054D-05  0.983415D-02 -0.108458D+00  0.211249D-03
                6             7             8             9            10 
      6  0.165768D+01
      7 -0.121384D+00  0.412581D+00
      8 -0.641995D-04 -0.806727D-03  0.169318D+00
      9 -0.130064D+00  0.274453D+00 -0.145008D-02  0.645628D+00
     10 -0.942708D-01 -0.162712D+00  0.714938D-03 -0.190077D+00  0.256437D+00
     11  0.255723D-03  0.720919D-03 -0.944577D-01  0.144629D-02 -0.922770D-03
     12 -0.700807D-01 -0.174860D+00  0.144457D-02 -0.489176D+00  0.284314D+00
               11            12 
     11  0.688065D-01
     12 -0.165281D-02  0.549423D+00
 Internal force constants: 
                1             2             3             4             5 
      1  0.147409D+01
      2 -0.155291D-01  0.446586D+00
      3 -0.889526D-02  0.161846D+00  0.715940D+00
      4  0.475651D-01  0.120336D+00  0.590814D-02  0.244177D+00
      5  0.989107D-02  0.128075D+00  0.112380D+00  0.204281D-01  0.246385D+00
      6 -0.124121D-04 -0.171349D-03  0.176472D-04  0.935397D-04 -0.171964D-03
                6 
      6  0.170226D-01
 Frcnst in PutFF: 
                1             2             3             4             5 
      1  0.147409D+01
      2 -0.155291D-01  0.446586D+00
      3 -0.889526D-02  0.161846D+00  0.715940D+00
      4  0.475651D-01  0.120336D+00  0.590814D-02  0.244177D+00
      5  0.989107D-02  0.128075D+00  0.112380D+00  0.204281D-01  0.246385D+00
      6 -0.124121D-04 -0.171349D-03  0.176472D-04  0.935397D-04 -0.171964D-03
                6 
      6  0.170226D-01
 Force constants in internal coordinates: 
                1             2             3             4             5 
      1  0.147409D+01
      2 -0.155291D-01  0.446586D+00
      3 -0.889526D-02  0.161846D+00  0.715940D+00
      4  0.475651D-01  0.120336D+00  0.590814D-02  0.244177D+00
      5  0.989107D-02  0.128075D+00  0.112380D+00  0.204281D-01  0.246385D+00
      6 -0.124121D-04 -0.171349D-03  0.176472D-04  0.935397D-04 -0.171964D-03
                6 
      6  0.170226D-01
 Final forces over variables, Energy=-1.65406506D+02:
  3.30101927D-01-8.08389266D-02-1.07620832D-01 3.10583234D-02
  1.00675665D-01-7.65037313D-05
 Leave Link  716 at Sun Mar 22 16:36:15 2020, MaxMem=  131072000 cpu:       0.0
 (Enter C:\G09W\l103.exe)

 GradGradGradGradGradGradGradGradGradGradGradGradGradGradGradGradGradGrad
 Berny optimization.
 Search for a local minimum.
 Step number   1 out of a maximum of    2
 All quantities printed in internal units (Hartrees-Bohrs-Radians)
 Second derivative matrix not updated -- analytic derivatives used.
 The second derivative matrix:
                          B1        B2        B3        A1        A2
           B1           1.47409
           B2          -0.01553   0.44659
           B3          -0.00890   0.16185   0.71594
           A1           0.04757   0.12034   0.00591   0.24418
           A2           0.00989   0.12807   0.11238   0.02043   0.24639
           D1          -0.00001  -0.00017   0.00002   0.00009  -0.00017
                          D1
           D1           0.01702
 ITU=  0
     Eigenvalues ---    0.01702   0.15685   0.21144   0.44160   0.84105
     Eigenvalues ---    1.47623
 Quadratic step=8.108D-01 exceeds max=3.000D-01 adjusted using Lamda=-4.012D-01.
 Angle between NR and scaled steps=  22.68 degrees.
 Angle between quadratic step and forces=  29.53 degrees.
 Linear search not attempted -- first point.
 Variable       Old X    -DE/DX   Delta X   Delta X   Delta X     New X
                                 (Linear)    (Quad)   (Total)
    B1        1.62234   0.33010   0.00000   0.17237   0.17237   1.79471
    B2        2.54633  -0.08084   0.00000  -0.10929  -0.10929   2.43705
    B3        2.35847  -0.10762   0.00000  -0.09851  -0.09851   2.25996
    A1        1.88992   0.03106   0.00000   0.05069   0.05069   1.94061
    A2        2.33390   0.10068   0.00000   0.18995   0.18995   2.52385
    D1        3.14609  -0.00008   0.00000  -0.00015  -0.00015   3.14594
         Item               Value     Threshold  Converged?
 Maximum Force            0.330102     0.000450     NO 
 RMS     Force            0.151759     0.000300     NO 
 Maximum Displacement     0.189951     0.001800     NO 
 RMS     Displacement     0.122481     0.001200     NO 
 Predicted change in Energy=-6.657134D-02
 GradGradGradGradGradGradGradGradGradGradGradGradGradGradGradGradGradGrad

 Leave Link  103 at Sun Mar 22 16:36:15 2020, MaxMem=  131072000 cpu:       0.0
 (Enter C:\G09W\l9999.exe)

 Test job not archived.
 1|1|UNPC-WIN-3U8THI5R4SL|Freq|RHF|STO-3G|C1H1N1O1|ADMINISTRATOR|22-Mar
 -2020|1||#p sto-3g scf=maxcycle=200 hf freq=noraman IOP(7/33=1)||T1||0
 ,1|H|N,1,B1|C,2,B2,1,A1|O,3,B3,2,A2,1,D1,0||B1=0.85850422|B2=1.3474606
 7|B3=1.24805096|A1=108.28417872|A2=133.72257696|D1=180.25749744||Versi
 on=IA32W-G09RevC.01|State=1-A|HF=-165.4065057|RMSD=3.617e-009|RMSF=1.4
 60e-001|ZeroPoint=0.0228282|Thermal=0.0257686|Dipole=0.4277189,0.00127
 09,-0.7327227|DipoleDeriv=0.3555988,-0.0005683,0.2033452,0.0005339,0.3
 551744,0.0004231,0.2396155,0.000083,0.1405286,-0.7590964,0.0026586,-0.
 6052011,-0.0003613,-0.6015999,-0.0006096,-0.2842921,-0.0000928,-0.3020
 226,0.8071348,-0.0025604,0.5745376,-0.0023819,0.4123432,-0.0006738,0.5
 27887,-0.000217,0.4964984,-0.4036372,0.0004701,-0.1726817,0.0022094,-0
 .1659177,0.0008604,-0.4832104,0.0002268,-0.3350045|Polar=14.5957352,-0
 .0036226,3.2832015,7.1995107,-0.0192555,13.6049541|HyperPolar=36.74632
 9,0.1138263,13.0637691,-0.0283877,6.4759914,0.0888343,6.146498,-7.1579
 527,0.0729831,-21.614986|PG=C01 [X(C1H1N1O1)]|NImag=2||-0.11069975,0.0
 0004754,-0.19240031,0.04111923,-0.00003867,1.47408823,0.16103395,-0.00
 015476,-0.06294336,0.13222700,-0.00007614,0.18719891,0.00001816,-0.000
 11028,-0.13278857,0.04297116,0.00000862,-1.45753515,0.17268341,-0.0002
 0014,1.65768035,-0.04394856,0.00007854,0.02179046,-0.20592079,0.000007
 27,-0.12138378,0.41258103,-0.00000048,-0.00128206,0.00006971,0.0000922
 7,-0.07357806,-0.00006420,-0.00080673,0.16931778,-0.08309515,0.0000330
 6,-0.02638723,-0.00128158,-0.00002927,-0.13006450,0.27445350,-0.001450
 08,0.64562811,-0.00638564,0.00002868,0.00003367,-0.08734016,0.00017915
 ,-0.09427079,-0.16271168,0.00071494,-0.19007676,0.25643748,0.00002907,
 0.00648345,-0.00004920,0.00017278,0.01916772,0.00025572,0.00072092,-0.
 09445766,0.00144629,-0.00092277,0.06880649,-0.00099524,-0.00000301,0.0
 0983415,-0.10845846,0.00021125,-0.07008070,-0.17486017,0.00144457,-0.4
 8917639,0.28431387,-0.00165281,0.54942293||0.01914418,-0.00004966,0.33
 010193,-0.11213233,-0.00014683,-0.30634122,0.08530844,0.00072352,-0.13
 928192,0.00767971,-0.00052702,0.11552121|||@


 In the beginning there was nothing, which exploded.
 Job cpu time:  0 days  0 hours  0 minutes  4.0 seconds.
 File lengths (MBytes):  RWF=      5 Int=      0 D2E=      0 Chk=      1 Scr=      1
 Normal termination of Gaussian 09 at Sun Mar 22 16:36:15 2020.
