 Entering Gaussian System, Link 0=g09
 Input=D:\ChemGo\ChemGo\test\tmp\State1_4.gjf
 Output=D:\ChemGo\ChemGo\test\tmp\State1_4.out
 Initial command:
 C:\G09W\l1.exe .\gxx.inp D:\ChemGo\ChemGo\test\tmp\State1_4.out /scrdir=.\
 Entering Link 1 = C:\G09W\l1.exe PID=      6892.
  
 Copyright (c) 1988,1990,1992,1993,1995,1998,2003,2009,2011,
            Gaussian, Inc.  All Rights Reserved.
  
 This is part of the Gaussian(R) 09 program.  It is based on
 the Gaussian(R) 03 system (copyright 2003, Gaussian, Inc.),
 the Gaussian(R) 98 system (copyright 1998, Gaussian, Inc.),
 the Gaussian(R) 94 system (copyright 1995, Gaussian, Inc.),
 the Gaussian 92(TM) system (copyright 1992, Gaussian, Inc.),
 the Gaussian 90(TM) system (copyright 1990, Gaussian, Inc.),
 the Gaussian 88(TM) system (copyright 1988, Gaussian, Inc.),
 the Gaussian 86(TM) system (copyright 1986, Carnegie Mellon
 University), and the Gaussian 82(TM) system (copyright 1983,
 Carnegie Mellon University). Gaussian is a federally registered
 trademark of Gaussian, Inc.
  
 This software contains proprietary and confidential information,
 including trade secrets, belonging to Gaussian, Inc.
  
 This software is provided under written license and may be
 used, copied, transmitted, or stored only in accord with that
 written license.
  
 The following legend is applicable only to US Government
 contracts under FAR:
  
                    RESTRICTED RIGHTS LEGEND
  
 Use, reproduction and disclosure by the US Government is
 subject to restrictions as set forth in subparagraphs (a)
 and (c) of the Commercial Computer Software - Restricted
 Rights clause in FAR 52.227-19.
  
 Gaussian, Inc.
 340 Quinnipiac St., Bldg. 40, Wallingford CT 06492
  
  
 ---------------------------------------------------------------
 Warning -- This program may not be used in any manner that
 competes with the business of Gaussian, Inc. or will provide
 assistance to any competitor of Gaussian, Inc.  The licensee
 of this program is prohibited from giving any competitor of
 Gaussian, Inc. access to this program.  By using this program,
 the user acknowledges that Gaussian, Inc. is engaged in the
 business of creating and licensing software in the field of
 computational chemistry and represents and warrants to the
 licensee that it is not a competitor of Gaussian, Inc. and that
 it will not use this program in any manner prohibited above.
 ---------------------------------------------------------------
  

 Cite this work as:
 Gaussian 09, Revision C.01,
 M. J. Frisch, G. W. Trucks, H. B. Schlegel, G. E. Scuseria, 
 M. A. Robb, J. R. Cheeseman, G. Scalmani, V. Barone, B. Mennucci, 
 G. A. Petersson, H. Nakatsuji, M. Caricato, X. Li, H. P. Hratchian, 
 A. F. Izmaylov, J. Bloino, G. Zheng, J. L. Sonnenberg, M. Hada, 
 M. Ehara, K. Toyota, R. Fukuda, J. Hasegawa, M. Ishida, T. Nakajima, 
 Y. Honda, O. Kitao, H. Nakai, T. Vreven, J. A. Montgomery, Jr., 
 J. E. Peralta, F. Ogliaro, M. Bearpark, J. J. Heyd, E. Brothers, 
 K. N. Kudin, V. N. Staroverov, T. Keith, R. Kobayashi, J. Normand, 
 K. Raghavachari, A. Rendell, J. C. Burant, S. S. Iyengar, J. Tomasi, 
 M. Cossi, N. Rega, J. M. Millam, M. Klene, J. E. Knox, J. B. Cross, 
 V. Bakken, C. Adamo, J. Jaramillo, R. Gomperts, R. E. Stratmann, 
 O. Yazyev, A. J. Austin, R. Cammi, C. Pomelli, J. W. Ochterski, 
 R. L. Martin, K. Morokuma, V. G. Zakrzewski, G. A. Voth, 
 P. Salvador, J. J. Dannenberg, S. Dapprich, A. D. Daniels, 
 O. Farkas, J. B. Foresman, J. V. Ortiz, J. Cioslowski, 
 and D. J. Fox, Gaussian, Inc., Wallingford CT, 2010.
 
 ******************************************
 Gaussian 09:  IA32W-G09RevC.01 23-Sep-2011
                22-Mar-2020 
 ******************************************
 %mem=1000mb
 %chk=LiuKun1.chk
 ------------------------------------------------------
 #p sto-3g scf=maxcycle=200 hf freq=noraman IOP(7/33=1)
 ------------------------------------------------------
 1/10=4,30=1,38=1/1,3;
 2/12=2,17=6,18=5,40=1/2;
 3/6=3,11=9,16=1,25=1,30=1,71=2/1,2,3;
 4//1;
 5/5=2,7=200,38=5,98=1/2;
 8/6=4,10=90,11=11/1;
 11/6=1,8=1,9=11,15=111,16=1/1,2,10;
 10/6=1/2;
 6/7=2,8=2,9=2,10=2,18=1,28=1/1;
 7/8=1,10=1,25=1,33=1/1,2,3,16;
 1/10=4,30=1/3;
 99//99;
 Leave Link    1 at Sun Mar 22 16:36:37 2020, MaxMem=  131072000 cpu:       0.0
 (Enter C:\G09W\l101.exe)
 --
 T1
 --
 Charge =  0 Multiplicity = 1
 Symbolic Z-Matrix:
 H
 N                    1    B1
 C                    2    B2       1    A1
 O                    3    B3       2    A2       1    D1       0
       Variables:
  B1                    1.05046                  
  B2                    1.36262                  
  B3                    1.23457                  
  A1                  107.69978                  
  A2                  134.13664                  
  D1                  180.                       
 
 NAtoms=      4 NQM=        0 NQMF=       0 NMMI=      4 NMMIF=      0
                NMic=       0 NMicF=      0.
                    Isotopes and Nuclear Properties:
 (Nuclear quadrupole moments (NQMom) in fm**2, nuclear magnetic moments (NMagM)
  in nuclear magnetons)

  Atom         1           2           3           4
 IAtWgt=           1          14          12          16
 AtmWgt=   1.0078250  14.0030740  12.0000000  15.9949146
 NucSpn=           1           2           0           0
 AtZEff=   0.0000000   0.0000000   0.0000000   0.0000000
 NQMom=    0.0000000   2.0440000   0.0000000   0.0000000
 NMagM=    2.7928460   0.4037610   0.0000000   0.0000000
 Leave Link  101 at Sun Mar 22 16:36:37 2020, MaxMem=  131072000 cpu:       0.0
 (Enter C:\G09W\l103.exe)

 GradGradGradGradGradGradGradGradGradGradGradGradGradGradGradGradGradGrad
 Berny optimization.
 Initialization pass.
                       ----------------------------
                       !    Initial Parameters    !
                       ! (Angstroms and Degrees)  !
 ----------------------                            ----------------------
 !      Name          Value   Derivative information (Atomic Units)     !
 ------------------------------------------------------------------------
 !       B1          1.0505   calculate D2E/DX2 analytically            !
 !       B2          1.3626   calculate D2E/DX2 analytically            !
 !       B3          1.2346   calculate D2E/DX2 analytically            !
 !       A1        107.6998   calculate D2E/DX2 analytically            !
 !       A2        134.1366   calculate D2E/DX2 analytically            !
 !       D1        180.0      calculate D2E/DX2 analytically            !
 ------------------------------------------------------------------------
 Trust Radius=3.00D-01 FncErr=1.00D-07 GrdErr=1.00D-07
 Number of steps in this run=      2 maximum allowed number of steps=      2.
 GradGradGradGradGradGradGradGradGradGradGradGradGradGradGradGradGradGrad

 Leave Link  103 at Sun Mar 22 16:36:37 2020, MaxMem=  131072000 cpu:       0.0
 (Enter C:\G09W\l202.exe)
                          Input orientation:                          
 ---------------------------------------------------------------------
 Center     Atomic      Atomic             Coordinates (Angstroms)
 Number     Number       Type             X           Y           Z
 ---------------------------------------------------------------------
      1          1           0        0.000000    0.000000    0.000000
      2          7           0        0.000000    0.000000    1.050457
      3          6           0        1.298117    0.000000    1.464734
      4          8           0        1.847761    0.000000    2.570197
 ---------------------------------------------------------------------
                    Distance matrix (angstroms):
                    1          2          3          4
     1  H    0.000000
     2  N    1.050457   0.000000
     3  C    1.957180   1.362620   0.000000
     4  O    3.165460   2.392453   1.234568   0.000000
 Stoichiometry    CHNO
 Framework group  CS[SG(CHNO)]
 Deg. of freedom     5
 Full point group                 CS      NOp   2
 Largest Abelian subgroup         CS      NOp   2
 Largest concise Abelian subgroup C1      NOp   1
                         Standard orientation:                         
 ---------------------------------------------------------------------
 Center     Atomic      Atomic             Coordinates (Angstroms)
 Number     Number       Type             X           Y           Z
 ---------------------------------------------------------------------
      1          1           0        0.365356   -1.924160    0.000000
      2          7           0       -0.342169   -1.147713    0.000000
      3          6           0        0.338304    0.032833    0.000000
      4          8           0        0.000000    1.220144    0.000000
 ---------------------------------------------------------------------
 Rotational constants (GHZ):    195.7914111     10.8726934     10.3006760
 Leave Link  202 at Sun Mar 22 16:36:37 2020, MaxMem=  131072000 cpu:       0.0
 (Enter C:\G09W\l301.exe)
 Standard basis: STO-3G (5D, 7F)
 Ernie: Thresh=  0.10000D-02 Tol=  0.10000D-05 Strict=F.
 There are    13 symmetry adapted basis functions of A'  symmetry.
 There are     3 symmetry adapted basis functions of A"  symmetry.
 Integral buffers will be    262144 words long.
 Raffenetti 1 integral format.
 Two-electron integral symmetry is turned on.
    16 basis functions,    48 primitive gaussians,    16 cartesian basis functions
    11 alpha electrons       11 beta electrons
       nuclear repulsion energy        55.7575976981 Hartrees.
 IExCor=    0 DFT=F Ex=HF Corr=None ExCW=0 ScaHFX=  1.000000
 ScaDFX=  1.000000  1.000000  1.000000  1.000000 ScalE2=  1.000000  1.000000
 IRadAn=      0 IRanWt=     -1 IRanGd=            0 ICorTp=0
 NAtoms=    4 NActive=    4 NUniq=    4 SFac= 1.00D+00 NAtFMM=   60 NAOKFM=F Big=F
 Leave Link  301 at Sun Mar 22 16:36:37 2020, MaxMem=  131072000 cpu:       0.0
 (Enter C:\G09W\l302.exe)
 NPDir=0 NMtPBC=     1 NCelOv=     1 NCel=       1 NClECP=     1 NCelD=      1
         NCelK=      1 NCelE2=     1 NClLst=     1 CellRange=     0.0.
 One-electron integrals computed using PRISM.
 NBasis=    16 RedAO= T  NBF=    13     3
 NBsUse=    16 1.00D-06 NBFU=    13     3
 Leave Link  302 at Sun Mar 22 16:36:38 2020, MaxMem=  131072000 cpu:       1.0
 (Enter C:\G09W\l303.exe)
 DipDrv:  MaxL=1.
 Leave Link  303 at Sun Mar 22 16:36:38 2020, MaxMem=  131072000 cpu:       0.0
 (Enter C:\G09W\l401.exe)
 Harris functional with IExCor=  205 diagonalized for initial guess.
 ExpMin= 1.69D-01 ExpMax= 1.31D+02 ExpMxC= 1.31D+02 IAcc=1 IRadAn=         1 AccDes= 0.00D+00
 HarFok:  IExCor=  205 AccDes= 0.00D+00 IRadAn=         1 IDoV= 1
 ScaDFX=  1.000000  1.000000  1.000000  1.000000
 FoFCou: FMM=F IPFlag=           0 FMFlag=      100000 FMFlg1=           0
         NFxFlg=           0 DoJE=T BraDBF=F KetDBF=T FulRan=T
         Omega=  0.000000  0.000000  1.000000  0.000000  0.000000 ICntrl=     500 IOpCl=  0
         NMat0=    1 NMatS0=    1 NMatT0=    0 NMatD0=    1 NMtDS0=    0 NMtDT0=    0
         I1Cent=           4 NGrid=           0.
 Petite list used in FoFCou.
 Harris En= -165.512733115824    
 Initial guess orbital symmetries:
       Occupied  (A') (A') (A') (A') (A') (A') (A') (A") (A') (A')
                 (A")
       Virtual   (A') (A") (A') (A') (A')
 The electronic state of the initial guess is 1-A'.
 Leave Link  401 at Sun Mar 22 16:36:38 2020, MaxMem=  131072000 cpu:       0.0
 (Enter C:\G09W\l502.exe)
 Closed shell SCF:
 Requested convergence on RMS density matrix=1.00D-08 within 200 cycles.
 Requested convergence on MAX density matrix=1.00D-06.
 Requested convergence on             energy=1.00D-06.
 No special actions if energy rises.
 Using DIIS extrapolation, IDIIS=  1040.
 Integral symmetry usage will be decided dynamically.
 Keep R1 ints in memory in canonical form, NReq=853025.
 IEnd=       43695 IEndB=       43695 NGot=   131072000 MDV=   131059824
 LenX=   131059824 LenY=   131058942
 Symmetry not used in FoFDir.
 MinBra= 0 MaxBra= 1 Meth= 1.
 IRaf=       0 NMat=   1 IRICut=       1 DoRegI=T DoRafI=F ISym2E= 0 JSym2E=0.

 Cycle   1  Pass 1  IDiag  1:
 E= -165.408243325903    
 DIIS: error= 4.66D-02 at cycle   1 NSaved=   1.
 NSaved= 1 IEnMin= 1 EnMin= -165.408243325903     IErMin= 1 ErrMin= 4.66D-02
 ErrMax= 4.66D-02 EMaxC= 1.00D-01 BMatC= 4.83D-02 BMatP= 4.83D-02
 IDIUse=3 WtCom= 5.34D-01 WtEn= 4.66D-01
 Coeff-Com:  0.100D+01
 Coeff-En:   0.100D+01
 Coeff:      0.100D+01
 Gap=     0.396 Goal=   None    Shift=    0.000
 GapD=    0.396 DampG=1.000 DampE=0.500 DampFc=0.5000 IDamp=-1.
 Damping current iteration by 5.00D-01
 RMSDP=2.20D-02 MaxDP=1.25D-01              OVMax= 0.00D+00

 Cycle   2  Pass 1  IDiag  1:
 E= -165.430927101751     Delta-E=       -0.022683775848 Rises=F Damp=T
 DIIS: error= 1.95D-02 at cycle   2 NSaved=   2.
 NSaved= 2 IEnMin= 2 EnMin= -165.430927101751     IErMin= 2 ErrMin= 1.95D-02
 ErrMax= 1.95D-02 EMaxC= 1.00D-01 BMatC= 7.21D-03 BMatP= 4.83D-02
 IDIUse=3 WtCom= 8.05D-01 WtEn= 1.95D-01
 Coeff-Com: -0.329D+00 0.133D+01
 Coeff-En:   0.000D+00 0.100D+01
 Coeff:     -0.265D+00 0.126D+01
 Gap=     0.478 Goal=   None    Shift=    0.000
 RMSDP=6.61D-03 MaxDP=2.88D-02 DE=-2.27D-02 OVMax= 0.00D+00

 Cycle   3  Pass 1  IDiag  1:
 E= -165.454774750283     Delta-E=       -0.023847648531 Rises=F Damp=F
 DIIS: error= 6.35D-03 at cycle   3 NSaved=   3.
 NSaved= 3 IEnMin= 3 EnMin= -165.454774750283     IErMin= 3 ErrMin= 6.35D-03
 ErrMax= 6.35D-03 EMaxC= 1.00D-01 BMatC= 9.29D-04 BMatP= 7.21D-03
 IDIUse=3 WtCom= 9.36D-01 WtEn= 6.35D-02
 Coeff-Com: -0.155D+00 0.217D+00 0.938D+00
 Coeff-En:   0.000D+00 0.000D+00 0.100D+01
 Coeff:     -0.145D+00 0.203D+00 0.942D+00
 Gap=     0.480 Goal=   None    Shift=    0.000
 RMSDP=3.04D-03 MaxDP=1.66D-02 DE=-2.38D-02 OVMax= 0.00D+00

 Cycle   4  Pass 1  IDiag  1:
 E= -165.456219883148     Delta-E=       -0.001445132865 Rises=F Damp=F
 DIIS: error= 2.11D-03 at cycle   4 NSaved=   4.
 NSaved= 4 IEnMin= 4 EnMin= -165.456219883148     IErMin= 4 ErrMin= 2.11D-03
 ErrMax= 2.11D-03 EMaxC= 1.00D-01 BMatC= 1.63D-04 BMatP= 9.29D-04
 IDIUse=3 WtCom= 9.79D-01 WtEn= 2.11D-02
 Coeff-Com: -0.421D-01 0.118D-01 0.262D+00 0.768D+00
 Coeff-En:   0.000D+00 0.000D+00 0.000D+00 0.100D+01
 Coeff:     -0.412D-01 0.116D-01 0.257D+00 0.773D+00
 Gap=     0.483 Goal=   None    Shift=    0.000
 RMSDP=1.36D-03 MaxDP=9.17D-03 DE=-1.45D-03 OVMax= 0.00D+00

 Cycle   5  Pass 1  IDiag  1:
 E= -165.456491448484     Delta-E=       -0.000271565336 Rises=F Damp=F
 DIIS: error= 1.77D-03 at cycle   5 NSaved=   5.
 NSaved= 5 IEnMin= 5 EnMin= -165.456491448484     IErMin= 5 ErrMin= 1.77D-03
 ErrMax= 1.77D-03 EMaxC= 1.00D-01 BMatC= 3.61D-05 BMatP= 1.63D-04
 IDIUse=3 WtCom= 9.82D-01 WtEn= 1.77D-02
 Coeff-Com:  0.382D-01-0.517D-01-0.319D+00 0.104D+00 0.123D+01
 Coeff-En:   0.000D+00 0.000D+00 0.000D+00 0.000D+00 0.100D+01
 Coeff:      0.375D-01-0.508D-01-0.314D+00 0.102D+00 0.123D+01
 Gap=     0.485 Goal=   None    Shift=    0.000
 RMSDP=9.86D-04 MaxDP=5.77D-03 DE=-2.72D-04 OVMax= 0.00D+00

 Cycle   6  Pass 1  IDiag  1:
 E= -165.456594889410     Delta-E=       -0.000103440926 Rises=F Damp=F
 DIIS: error= 3.16D-04 at cycle   6 NSaved=   6.
 NSaved= 6 IEnMin= 6 EnMin= -165.456594889410     IErMin= 6 ErrMin= 3.16D-04
 ErrMax= 3.16D-04 EMaxC= 1.00D-01 BMatC= 1.22D-06 BMatP= 3.61D-05
 IDIUse=3 WtCom= 9.97D-01 WtEn= 3.16D-03
 Coeff-Com: -0.186D-01 0.267D-01 0.168D+00-0.714D-01-0.708D+00 0.160D+01
 Coeff-En:   0.000D+00 0.000D+00 0.000D+00 0.000D+00 0.000D+00 0.100D+01
 Coeff:     -0.186D-01 0.266D-01 0.167D+00-0.712D-01-0.705D+00 0.160D+01
 Gap=     0.485 Goal=   None    Shift=    0.000
 RMSDP=2.45D-04 MaxDP=1.78D-03 DE=-1.03D-04 OVMax= 0.00D+00

 Cycle   7  Pass 1  IDiag  1:
 E= -165.456602244220     Delta-E=       -0.000007354810 Rises=F Damp=F
 DIIS: error= 1.62D-04 at cycle   7 NSaved=   7.
 NSaved= 7 IEnMin= 7 EnMin= -165.456602244220     IErMin= 7 ErrMin= 1.62D-04
 ErrMax= 1.62D-04 EMaxC= 1.00D-01 BMatC= 2.77D-07 BMatP= 1.22D-06
 IDIUse=3 WtCom= 9.98D-01 WtEn= 1.62D-03
 Coeff-Com:  0.120D-01-0.174D-01-0.110D+00 0.766D-01 0.428D+00-0.141D+01
 Coeff-Com:  0.202D+01
 Coeff-En:   0.000D+00 0.000D+00 0.000D+00 0.000D+00 0.000D+00 0.000D+00
 Coeff-En:   0.100D+01
 Coeff:      0.120D-01-0.173D-01-0.110D+00 0.764D-01 0.427D+00-0.141D+01
 Coeff:      0.202D+01
 Gap=     0.485 Goal=   None    Shift=    0.000
 RMSDP=1.77D-04 MaxDP=1.17D-03 DE=-7.35D-06 OVMax= 0.00D+00

 Cycle   8  Pass 1  IDiag  1:
 E= -165.456604381992     Delta-E=       -0.000002137773 Rises=F Damp=F
 DIIS: error= 5.58D-05 at cycle   8 NSaved=   8.
 NSaved= 8 IEnMin= 8 EnMin= -165.456604381992     IErMin= 8 ErrMin= 5.58D-05
 ErrMax= 5.58D-05 EMaxC= 1.00D-01 BMatC= 4.12D-08 BMatP= 2.77D-07
 IDIUse=1 WtCom= 1.00D+00 WtEn= 0.00D+00
 Coeff-Com: -0.472D-02 0.663D-02 0.523D-01-0.381D-01-0.193D+00 0.729D+00
 Coeff-Com: -0.139D+01 0.184D+01
 Coeff:     -0.472D-02 0.663D-02 0.523D-01-0.381D-01-0.193D+00 0.729D+00
 Coeff:     -0.139D+01 0.184D+01
 Gap=     0.485 Goal=   None    Shift=    0.000
 RMSDP=8.60D-05 MaxDP=4.71D-04 DE=-2.14D-06 OVMax= 0.00D+00

 Cycle   9  Pass 1  IDiag  1:
 E= -165.456604799371     Delta-E=       -0.000000417379 Rises=F Damp=F
 DIIS: error= 2.87D-05 at cycle   9 NSaved=   9.
 NSaved= 9 IEnMin= 9 EnMin= -165.456604799371     IErMin= 9 ErrMin= 2.87D-05
 ErrMax= 2.87D-05 EMaxC= 1.00D-01 BMatC= 7.77D-09 BMatP= 4.12D-08
 IDIUse=1 WtCom= 1.00D+00 WtEn= 0.00D+00
 Coeff-Com:  0.233D-02-0.304D-02-0.317D-01 0.226D-01 0.114D+00-0.454D+00
 Coeff-Com:  0.952D+00-0.178D+01 0.218D+01
 Coeff:      0.233D-02-0.304D-02-0.317D-01 0.226D-01 0.114D+00-0.454D+00
 Coeff:      0.952D+00-0.178D+01 0.218D+01
 Gap=     0.485 Goal=   None    Shift=    0.000
 RMSDP=5.24D-05 MaxDP=2.99D-04 DE=-4.17D-07 OVMax= 0.00D+00

 Cycle  10  Pass 1  IDiag  1:
 E= -165.456604896252     Delta-E=       -0.000000096881 Rises=F Damp=F
 DIIS: error= 5.26D-06 at cycle  10 NSaved=  10.
 NSaved=10 IEnMin=10 EnMin= -165.456604896252     IErMin=10 ErrMin= 5.26D-06
 ErrMax= 5.26D-06 EMaxC= 1.00D-01 BMatC= 5.97D-10 BMatP= 7.77D-09
 IDIUse=1 WtCom= 1.00D+00 WtEn= 0.00D+00
 Coeff-Com: -0.725D-03 0.859D-03 0.124D-01-0.894D-02-0.431D-01 0.187D+00
 Coeff-Com: -0.430D+00 0.936D+00-0.144D+01 0.179D+01
 Coeff:     -0.725D-03 0.859D-03 0.124D-01-0.894D-02-0.431D-01 0.187D+00
 Coeff:     -0.430D+00 0.936D+00-0.144D+01 0.179D+01
 Gap=     0.485 Goal=   None    Shift=    0.000
 RMSDP=1.26D-05 MaxDP=6.38D-05 DE=-9.69D-08 OVMax= 0.00D+00

 Cycle  11  Pass 1  IDiag  1:
 E= -165.456604901221     Delta-E=       -0.000000004969 Rises=F Damp=F
 DIIS: error= 1.31D-06 at cycle  11 NSaved=  11.
 NSaved=11 IEnMin=11 EnMin= -165.456604901221     IErMin=11 ErrMin= 1.31D-06
 ErrMax= 1.31D-06 EMaxC= 1.00D-01 BMatC= 3.52D-11 BMatP= 5.97D-10
 IDIUse=1 WtCom= 1.00D+00 WtEn= 0.00D+00
 Coeff-Com:  0.189D-03-0.200D-03-0.397D-02 0.276D-02 0.136D-01-0.600D-01
 Coeff-Com:  0.143D+00-0.323D+00 0.547D+00-0.873D+00 0.155D+01
 Coeff:      0.189D-03-0.200D-03-0.397D-02 0.276D-02 0.136D-01-0.600D-01
 Coeff:      0.143D+00-0.323D+00 0.547D+00-0.873D+00 0.155D+01
 Gap=     0.485 Goal=   None    Shift=    0.000
 RMSDP=1.45D-06 MaxDP=7.80D-06 DE=-4.97D-09 OVMax= 0.00D+00

 Cycle  12  Pass 1  IDiag  1:
 E= -165.456604901388     Delta-E=       -0.000000000167 Rises=F Damp=F
 DIIS: error= 3.13D-07 at cycle  12 NSaved=  12.
 NSaved=12 IEnMin=12 EnMin= -165.456604901388     IErMin=12 ErrMin= 3.13D-07
 ErrMax= 3.13D-07 EMaxC= 1.00D-01 BMatC= 2.51D-12 BMatP= 3.52D-11
 IDIUse=1 WtCom= 1.00D+00 WtEn= 0.00D+00
 Coeff-Com: -0.118D-04-0.113D-04 0.947D-03-0.616D-03-0.310D-02 0.153D-01
 Coeff-Com: -0.405D-01 0.101D+00-0.190D+00 0.356D+00-0.894D+00 0.166D+01
 Coeff:     -0.118D-04-0.113D-04 0.947D-03-0.616D-03-0.310D-02 0.153D-01
 Coeff:     -0.405D-01 0.101D+00-0.190D+00 0.356D+00-0.894D+00 0.166D+01
 Gap=     0.485 Goal=   None    Shift=    0.000
 RMSDP=3.95D-07 MaxDP=1.88D-06 DE=-1.67D-10 OVMax= 0.00D+00

 Cycle  13  Pass 1  IDiag  1:
 E= -165.456604901398     Delta-E=       -0.000000000010 Rises=F Damp=F
 DIIS: error= 5.07D-08 at cycle  13 NSaved=  13.
 NSaved=13 IEnMin=13 EnMin= -165.456604901398     IErMin=13 ErrMin= 5.07D-08
 ErrMax= 5.07D-08 EMaxC= 1.00D-01 BMatC= 6.13D-14 BMatP= 2.51D-12
 IDIUse=1 WtCom= 1.00D+00 WtEn= 0.00D+00
 Coeff-Com:  0.374D-05-0.182D-06-0.191D-03 0.112D-03 0.661D-03-0.308D-02
 Coeff-Com:  0.803D-02-0.196D-01 0.367D-01-0.682D-01 0.178D+00-0.371D+00
 Coeff-Com:  0.124D+01
 Coeff:      0.374D-05-0.182D-06-0.191D-03 0.112D-03 0.661D-03-0.308D-02
 Coeff:      0.803D-02-0.196D-01 0.367D-01-0.682D-01 0.178D+00-0.371D+00
 Coeff:      0.124D+01
 Gap=     0.485 Goal=   None    Shift=    0.000
 RMSDP=2.78D-08 MaxDP=1.40D-07 DE=-1.04D-11 OVMax= 0.00D+00

 Cycle  14  Pass 1  IDiag  1:
 E= -165.456604901399     Delta-E=        0.000000000000 Rises=F Damp=F
 DIIS: error= 7.79D-09 at cycle  14 NSaved=  14.
 NSaved=14 IEnMin=14 EnMin= -165.456604901399     IErMin=14 ErrMin= 7.79D-09
 ErrMax= 7.79D-09 EMaxC= 1.00D-01 BMatC= 9.60D-16 BMatP= 6.13D-14
 IDIUse=1 WtCom= 1.00D+00 WtEn= 0.00D+00
 Coeff-Com:  0.574D-06-0.954D-06-0.132D-05 0.526D-05-0.145D-05 0.508D-05
 Coeff-Com: -0.963D-04 0.371D-03-0.985D-03 0.243D-02-0.104D-01 0.294D-01
 Coeff-Com: -0.285D+00 0.126D+01
 Coeff:      0.574D-06-0.954D-06-0.132D-05 0.526D-05-0.145D-05 0.508D-05
 Coeff:     -0.963D-04 0.371D-03-0.985D-03 0.243D-02-0.104D-01 0.294D-01
 Coeff:     -0.285D+00 0.126D+01
 Gap=     0.485 Goal=   None    Shift=    0.000
 RMSDP=5.93D-09 MaxDP=3.50D-08 DE=-3.98D-13 OVMax= 0.00D+00

 SCF Done:  E(RHF) =  -165.456604901     A.U. after   14 cycles
             Convg  =    0.5934D-08             -V/T =  2.0097
 KE= 1.638597389870D+02 PE=-5.014099804060D+02 EE= 1.163360388195D+02
 Leave Link  502 at Sun Mar 22 16:36:38 2020, MaxMem=  131072000 cpu:       0.0
 (Enter C:\G09W\l801.exe)
 Range of M.O.s used for correlation:     1    16
 NBasis=    16 NAE=    11 NBE=    11 NFC=     0 NFV=     0
 NROrb=     16 NOA=    11 NOB=    11 NVA=     5 NVB=     5
 Leave Link  801 at Sun Mar 22 16:36:38 2020, MaxMem=  131072000 cpu:       0.0
 (Enter C:\G09W\l1101.exe)
 Using compressed storage, NAtomX=     4.
 Will process   5 centers per pass.
 Leave Link 1101 at Sun Mar 22 16:36:39 2020, MaxMem=  131072000 cpu:       1.0
 (Enter C:\G09W\l1102.exe)
 Symmetrizing basis deriv contribution to polar:
 IMax=3 JMax=2 DiffMx= 0.00D+00
 Leave Link 1102 at Sun Mar 22 16:36:39 2020, MaxMem=  131072000 cpu:       0.0
 (Enter C:\G09W\l1110.exe)
 Forming Gx(P) for the SCF density, NAtomX=     4.
 Integral derivatives from FoFDir/FoFCou, PRISM(SPDF).
 Do as many integral derivatives as possible in FoFDir.
 G2DrvN: MDV=     131071922.
 G2DrvN: will do     5 centers at a time, making    1 passes doing MaxLOS=1.
 Calling FoFCou, ICntrl=  3107 FMM=F I1Cent=   0 AccDes= 0.00D+00.
 FoFCou: FMM=F IPFlag=           0 FMFlag=      100000 FMFlg1=           0
         NFxFlg=           0 DoJE=F BraDBF=F KetDBF=F FulRan=T
         Omega=  0.000000  0.000000  1.000000  0.000000  0.000000 ICntrl=    3107 IOpCl=  0
         NMat0=    1 NMatS0=    1 NMatT0=    0 NMatD0=    1 NMtDS0=    0 NMtDT0=    0
         I1Cent=           0 NGrid=           0.
 Petite list used in FoFCou.
 FoFDir/FoFCou used for L=0 through L=1.
 End of G2Drv Frequency-dependent properties file   721 does not exist.
 End of G2Drv Frequency-dependent properties file   722 does not exist.
 Leave Link 1110 at Sun Mar 22 16:36:39 2020, MaxMem=  131072000 cpu:       0.0
 (Enter C:\G09W\l1002.exe)
 Minotr:  Closed shell wavefunction.
          IDoAtm=1111
          Direct CPHF calculation.
          Differentiating once with respect to electric field.
                with respect to dipole field.
          Differentiating once with respect to nuclear coordinates.
          Using symmetry in CPHF.
          Requested convergence is 1.0D-08 RMS, and 1.0D-07 maximum.
          Secondary convergence is 1.0D-12 RMS, and 1.0D-12 maximum.
          NewPWx=T KeepS1=F KeepF1=F KeepIn=T MapXYZ=F SortEE=F KeepMc=T.
          MDV=     131071968 using IRadAn=       2.
          Keep R1 ints in memory in canonical form, NReq=809614.
 Symmetry not used in FoFDir.
 MinBra= 0 MaxBra= 1 Meth= 1.
 IRaf=       0 NMat=   1 IRICut=       1 DoRegI=T DoRafI=F ISym2E= 0 JSym2E=0.
          Solving linear equations simultaneously, MaxMat=       0.
          There are    15 degrees of freedom in the 1st order CPHF.  IDoFFX=5.
     12 vectors produced by pass  0 Test12= 3.67D-16 6.67D-09 XBig12= 1.32D+01 2.53D+00.
 AX will form    12 AO Fock derivatives at one time.
     12 vectors produced by pass  1 Test12= 3.67D-16 6.67D-09 XBig12= 1.19D+00 5.78D-01.
     12 vectors produced by pass  2 Test12= 3.67D-16 6.67D-09 XBig12= 6.13D-03 4.18D-02.
     12 vectors produced by pass  3 Test12= 3.67D-16 6.67D-09 XBig12= 3.46D-06 6.72D-04.
      7 vectors produced by pass  4 Test12= 3.67D-16 6.67D-09 XBig12= 5.79D-09 4.52D-05.
 Inverted reduced A of dimension    55 with in-core refinement.
 FullF1:  Do perturbations    1 to     3.
 Isotropic polarizability for W=    0.000000       11.44 Bohr**3.
 End of Minotr Frequency-dependent properties file   721 does not exist.
 End of Minotr Frequency-dependent properties file   722 does not exist.
 Leave Link 1002 at Sun Mar 22 16:36:39 2020, MaxMem=  131072000 cpu:       0.0
 (Enter C:\G09W\l601.exe)
 Copying SCF densities to generalized density rwf, IOpCl= 0 IROHF=0.

 **********************************************************************

            Population analysis using the SCF density.

 **********************************************************************

 Orbital symmetries:
       Occupied  (A') (A') (A') (A') (A') (A') (A') (A") (A') (A')
                 (A")
       Virtual   (A') (A") (A') (A') (A')
 The electronic state is 1-A'.
 Alpha  occ. eigenvalues --  -20.37294 -15.33393 -11.19583  -1.37718  -1.11464
 Alpha  occ. eigenvalues --   -0.69612  -0.58303  -0.54939  -0.51664  -0.37834
 Alpha  occ. eigenvalues --   -0.32105
 Alpha virt. eigenvalues --    0.16431   0.27896   0.58807   0.75505   0.95147
          Condensed to atoms (all electrons):
              1          2          3          4
     1  H    0.573995   0.303098  -0.035154   0.001036
     2  N    0.303098   6.633343   0.395583  -0.019338
     3  C   -0.035154   0.395583   4.872475   0.447662
     4  O    0.001036  -0.019338   0.447662   7.734413
 Mulliken atomic charges:
              1
     1  H    0.157025
     2  N   -0.312686
     3  C    0.319435
     4  O   -0.163773
 Sum of Mulliken atomic charges =   0.00000
 Mulliken charges with hydrogens summed into heavy atoms:
              1
     2  N   -0.155662
     3  C    0.319435
     4  O   -0.163773
 Sum of Mulliken charges with hydrogens summed into heavy atoms =   0.00000
 APT atomic charges:
              1
     1  H    0.197226
     2  N   -0.450280
     3  C    0.581133
     4  O   -0.328078
 Sum of APT charges=   0.00000
 APT Atomic charges with hydrogens summed into heavy atoms:
              1
     1  H    0.000000
     2  N   -0.253054
     3  C    0.581133
     4  O   -0.328078
 Sum of APT charges=   0.00000
 Electronic spatial extent (au):  <R**2>=            128.4254
 Charge=              0.0000 electrons
 Dipole moment (field-independent basis, Debye):
    X=              1.9908    Y=             -0.6967    Z=              0.0000  Tot=              2.1092
 Quadrupole moment (field-independent basis, Debye-Ang):
   XX=            -14.7455   YY=            -15.8518   ZZ=            -14.9535
   XY=             -1.8593   XZ=              0.0000   YZ=              0.0000
 Traceless Quadrupole moment (field-independent basis, Debye-Ang):
   XX=              0.4381   YY=             -0.6682   ZZ=              0.2301
   XY=             -1.8593   XZ=              0.0000   YZ=              0.0000
 Octapole moment (field-independent basis, Debye-Ang**2):
  XXX=              0.5320  YYY=             -2.3029  ZZZ=              0.0000  XYY=              2.5322
  XXY=              2.2017  XXZ=              0.0000  XZZ=              0.1743  YZZ=              1.9686
  YYZ=              0.0000  XYZ=              0.0000
 Hexadecapole moment (field-independent basis, Debye-Ang**3):
 XXXX=            -16.5754 YYYY=            -97.7518 ZZZZ=             -9.5742 XXXY=             -5.3560
 XXXZ=              0.0000 YYYX=             -9.1063 YYYZ=              0.0000 ZZZX=              0.0000
 ZZZY=              0.0000 XXYY=            -19.7806 XXZZ=             -4.3770 YYZZ=            -19.5558
 XXYZ=              0.0000 YYXZ=              0.0000 ZZXY=             -1.7322
 N-N= 5.575759769814D+01 E-N=-5.014099804526D+02  KE= 1.638597389870D+02
 Symmetry A'   KE= 1.561335940009D+02
 Symmetry A"   KE= 7.726144986061D+00
  Exact polarizability:   7.400   0.594  23.551   0.000   0.000   3.376
 Approx polarizability:   9.421   2.623  33.287   0.000   0.000   2.044
 No NMR shielding tensors so no spin-rotation constants.
 Leave Link  601 at Sun Mar 22 16:36:40 2020, MaxMem=  131072000 cpu:       1.0
 (Enter C:\G09W\l701.exe)
 Compute integral second derivatives.
 ... and contract with generalized density number  0.
 Entering OneElI...
 Calculate overlap and kinetic energy integrals
    NBasis =  16  MinDer = 2  MaxDer = 2
 Requested accuracy = 0.1000D-12
 PrsmSu:  NPrtUS=   1 ThrOK=F IAlg=1 NPAlg=1 LenDen=           0.
 Prism:   IPart=     0 DynPar=F LinDyn=F Incr=           1.
 PRISM was handed   131066946 working-precision words and    28 shell-pairs
 IPart=  0 NShTot=          28 NBatch=           8 AvBLen=         3.5
 PrSmSu:  NxtVal=              2.
 Entering OneElI...
 Calculate potential energy integrals
    NBasis =  16  MinDer = 2  MaxDer = 2
 Requested accuracy = 0.1000D-12
 PrsmSu:  NPrtUS=   1 ThrOK=F IAlg=1 NPAlg=1 LenDen=           0.
 Prism:   IPart=     0 DynPar=F LinDyn=F Incr=           1.
 PRISM was handed   131067132 working-precision words and    27 shell-pairs
 IPart=  0 NShTot=         108 NBatch=          27 AvBLen=         4.0
 PrSmSu:  NxtVal=              2.
 Polarizability after L701:
                1             2             3 
      1  0.739963D+01
      2  0.594342D+00  0.235509D+02
      3  0.000000D+00  0.000000D+00  0.337568D+01
 Dipole Derivatives after L701:
                 1             2             3             4             5 
      1   0.220564D-01  0.112790D+00  0.000000D+00 -0.311205D-01 -0.145129D-01
      2   0.218279D+00  0.272291D+00  0.000000D+00 -0.594442D+00 -0.797614D+00
      3   0.000000D+00  0.000000D+00  0.297331D+00  0.000000D+00  0.000000D+00
                 6             7             8             9            10 
      1   0.000000D+00  0.641523D-01  0.799082D-01  0.000000D+00 -0.550882D-01
      2   0.000000D+00  0.271535D+00  0.130326D+01  0.000000D+00  0.104627D+00
      3  -0.522107D+00  0.000000D+00  0.000000D+00  0.375988D+00  0.000000D+00
                11            12 
      1  -0.178185D+00  0.000000D+00
      2  -0.777934D+00  0.000000D+00
      3   0.000000D+00 -0.151213D+00
 Hessian after L701:
                1             2             3             4             5 
      1  0.167689D+01
      2  0.861977D+00  0.171768D+01
      3  0.000000D+00  0.000000D+00  0.247479D+01
      4 -0.169777D+01 -0.944068D+00  0.000000D+00  0.568089D+01
      5 -0.730535D+00 -0.171060D+01  0.000000D+00 -0.335050D+01  0.749138D+00
      6  0.000000D+00  0.000000D+00 -0.247913D+01  0.000000D+00  0.000000D+00
      7  0.409871D-01  0.129005D+00  0.000000D+00 -0.348669D+01  0.401601D+01
      8 -0.514012D-01 -0.142696D+00  0.000000D+00  0.388674D+01  0.129527D+00
      9  0.000000D+00  0.000000D+00  0.345024D-01  0.000000D+00  0.000000D+00
     10 -0.201115D-01 -0.469143D-01  0.000000D+00 -0.496431D+00  0.650219D-01
     11 -0.800407D-01  0.135614D+00  0.000000D+00  0.407827D+00  0.831933D+00
     12  0.000000D+00  0.000000D+00 -0.301649D-01  0.000000D+00  0.000000D+00
                6             7             8             9            10 
      6  0.982466D+01
      7  0.000000D+00  0.125260D+02
      8  0.000000D+00 -0.324208D+00 -0.215249D+01
      9 -0.689871D+01  0.000000D+00  0.000000D+00  0.161552D+02
     10  0.000000D+00 -0.908034D+01 -0.351113D+01  0.000000D+00  0.959688D+01
     11  0.000000D+00 -0.382081D+01  0.216566D+01  0.000000D+00  0.349302D+01
     12 -0.446817D+00  0.000000D+00  0.000000D+00 -0.929102D+01  0.000000D+00
               11            12 
     11 -0.313320D+01
     12  0.000000D+00  0.976800D+01
 Leave Link  701 at Sun Mar 22 16:36:40 2020, MaxMem=  131072000 cpu:       0.0
 (Enter C:\G09W\l702.exe)
 L702 exits ... SP integral derivatives will be done elsewhere.
 Leave Link  702 at Sun Mar 22 16:36:40 2020, MaxMem=  131072000 cpu:       0.0
 (Enter C:\G09W\l703.exe)
 Compute integral second derivatives, UseDBF=F ICtDFT=           0.
 Integral derivatives from FoFDir, PRISM(SPDF).
 ICntrl=    100127.
 Calling FoFJK, ICntrl=    100127 FMM=F ISym2X=1 I1Cent= 0 IOpClX= 0 NMat=1 NMatS=1 NMatT=0.
 FoFJK:  IHMeth= 1 ICntrl=100127 DoSepK=F KAlg= 1 I1Cent= 0 FoldK=F
 FoFCou: FMM=F IPFlag=           0 FMFlag=      100000 FMFlg1=         800
         NFxFlg=           0 DoJE=F BraDBF=F KetDBF=F FulRan=T
         Omega=  0.000000  0.000000  1.000000  0.000000  0.000000 ICntrl=  100127 IOpCl=  0
         NMat0=    1 NMatS0=    1 NMatT0=    0 NMatD0=    1 NMtDS0=    0 NMtDT0=    0
         I1Cent=           0 NGrid=           0.
 Petite list used in FoFCou.
 FoFCou:  KetSym=F NOpSet=  2 NOpAb=2 NOp=  2.
 FoFCou:  CnvScl= 1.00D+00 Thresh= 1.00D-10
 PrismS was handed   131066939 working-precision words and    27 shell-pairs
 FoFCou: LinMIO=F DoNuc=F BraDBF=F KetDBF=F HaveP=T PDBF=F HaveZ=T HaveW=F
         NIJTC =       3 NIJTAt=       0 NIJTCD=       0 NIJTT =       3
         IJTBeg=       1 IJTEnd=       3 KLTBeg=       1 KLTEnd=       3
         IPTBeg=       1 IPTEnd=       3 IPTBCv=       1 IPTECv=       3
         IZTBeg=       1 IZTEnd=       3 IZTBCv=       1 IZTECv=       3
         IWTBeg=       4 IWTEnd=       3 IWTBCv=       4 IWTECv=       3
         INTBeg=       1 INTEnd=       0 IFTBCv=       1 IFTECv=       3
 NCel replicated for PrismC:     1
 CoulSu:  IncDef=  1024 NBBP=            378 NTPThr=   100 NPartT=    1 Incr=           3 LDynOK=F.
 CoulSu:  NPrtUS=   1 ThrOK=F IAlg=1 NPAlg=1 LenDen=           0.
 Enter PrismC: JobTyp=22 DoJE=F Cont=F.
 PrismC:  IPart=     0 DynPar=F LinDyn=F Incr=           3 UseFst=F UseS4=T.
 PrismC was handed   131066893 working-precision words and    27 shell-pairs
 IPart=  0 NShTot=         372 NShNF=         372 NShFF=           0 NBatch=          43 AvBLen=         8.7
 CoulSu:  NxtVal=              4.
 Polarizability after L703:
                1             2             3 
      1  0.739963D+01
      2  0.594342D+00  0.235509D+02
      3  0.000000D+00  0.000000D+00  0.337568D+01
 Dipole Derivatives after L703:
                 1             2             3             4             5 
      1   0.220564D-01  0.112790D+00  0.000000D+00 -0.311205D-01 -0.145129D-01
      2   0.218279D+00  0.272291D+00  0.000000D+00 -0.594442D+00 -0.797614D+00
      3   0.000000D+00  0.000000D+00  0.297331D+00  0.000000D+00  0.000000D+00
                 6             7             8             9            10 
      1   0.000000D+00  0.641523D-01  0.799082D-01  0.000000D+00 -0.550882D-01
      2   0.000000D+00  0.271535D+00  0.130326D+01  0.000000D+00  0.104627D+00
      3  -0.522107D+00  0.000000D+00  0.000000D+00  0.375988D+00  0.000000D+00
                11            12 
      1  -0.178185D+00  0.000000D+00
      2  -0.777934D+00  0.000000D+00
      3   0.000000D+00 -0.151213D+00
 Hessian after L703:
                1             2             3             4             5 
      1  0.248283D+00
      2 -0.230049D+00  0.339627D+00
      3  0.000000D+00  0.000000D+00  0.584066D-02
      4 -0.248682D+00  0.198837D+00  0.000000D+00  0.337236D+00
      5  0.282215D+00 -0.296105D+00  0.000000D+00 -0.190977D+00  0.649206D+00
      6  0.000000D+00  0.000000D+00 -0.688264D-02  0.000000D+00  0.000000D+00
      7  0.155583D-02  0.381153D-01  0.000000D+00 -0.113339D+00 -0.755364D-01
      8 -0.443062D-01 -0.436891D-01  0.000000D+00  0.254035D-01 -0.176889D+00
      9  0.000000D+00  0.000000D+00 -0.335964D-02  0.000000D+00  0.000000D+00
     10 -0.115743D-02 -0.690381D-02  0.000000D+00  0.247849D-01 -0.157016D-01
     11 -0.786069D-02  0.166649D-03  0.000000D+00 -0.332632D-01 -0.176212D+00
     12  0.000000D+00  0.000000D+00  0.440163D-02  0.000000D+00  0.000000D+00
                6             7             8             9            10 
      6  0.555536D-01
      7  0.000000D+00  0.240730D+00
      8  0.000000D+00 -0.143256D+00  0.827585D+00
      9 -0.684640D-01  0.000000D+00  0.000000D+00  0.156933D+00
     10  0.000000D+00 -0.128947D+00  0.162158D+00  0.000000D+00  0.105320D+00
     11  0.000000D+00  0.180677D+00 -0.607007D+00  0.000000D+00 -0.139553D+00
     12  0.197930D-01  0.000000D+00  0.000000D+00 -0.851089D-01  0.000000D+00
               11            12 
     11  0.783053D+00
     12  0.000000D+00  0.609142D-01
 Leave Link  703 at Sun Mar 22 16:36:41 2020, MaxMem=  131072000 cpu:       1.0
 (Enter C:\G09W\l716.exe)
 FrcOut:
 IF    =    28 IFX   =    40 IFXYZ =    52
 IFFX  =    64 IFFFX =   142 IFLen =    12
 IFFLen=    78 IFFFLn=     0 IEDerv=   142
 LEDerv=   629 IFroze=   775 ICStrt=  1368
 Dipole        = 7.83251495D-01-2.74084899D-01-1.02831521D-24
 DipoleDeriv   = 2.20563926D-02 2.18279493D-01 5.96908739D-25
                 1.12789804D-01 2.72290784D-01-7.92478389D-25
                 1.52855982D-24 3.75926954D-24 2.97331017D-01
                -3.11204905D-02-5.94442037D-01-3.10224331D-24
                -1.45128533D-02-7.97613901D-01-1.82227038D-24
                -7.77787504D-24-2.48456006D-24-5.22106971D-01
                 6.41523464D-02 2.71535422D-01 3.01903971D-24
                 7.99081682D-02 1.30325709D+00 8.36904071D-25
                 4.25751713D-24-1.94453723D-24 3.75988488D-01
                -5.50882485D-02 1.04627121D-01-5.13705136D-25
                -1.78185119D-01-7.77933976D-01 1.77784470D-24
                 1.99179810D-24 6.69827749D-25-1.51212534D-01
 Polarizability= 7.39962537D+00 5.94341837D-01 2.35508852D+01
                -5.49158000D-24-5.01467515D-24 3.37567840D+00
 HyperPolar    = 8.00743505D+00 5.99573422D+00 2.66140987D+01
                -9.44401274D-01-1.49460807D-23-3.81990622D-23
                -8.28882025D-23 6.25622486D+00 1.45360912D+01
                -2.73830553D-23
 VibFq2-Diag1:  N=     12 IV=           3 MDV=   131069928 NE2=    10922493
 Full mass-weighted force constant matrix:
 Low frequencies ---    0.0010    0.0012    0.0014  202.6951  244.7592  427.6027
 Low frequencies ---  673.7594  693.0007 1001.3912
 OrtVCM:  Ph=1 IPass= 1 DotMx1= 0.00D+00
 OrtVCM:  IS=    1 I=    1 IndO=    1 Dot= 1.00D+00 DotN= 1.00D+00 ElMax1= 6.10D-01 ElMax1N= 6.10D-01
 OrtVCM:  Ph=2 NNew=    0 IAdd=    2 IPass= 1 DotMx2= 0.00D+00
 OrtVCM:  IS=    1 I=    2 IndO=    2 Dot= 1.00D+00 DotN= 1.00D+00 ElMax1= 6.10D-01 ElMax1N= 6.10D-01
 OrtVCM:  Ph=2 NNew=    0 IAdd=    3 IPass= 1 DotMx2= 0.00D+00
 OrtVCM:  IS=    1 I=    3 IndO=    3 Dot= 1.00D+00 DotN= 1.00D+00 ElMax1= 6.10D-01 ElMax1N= 6.10D-01
 OrtVCM:  Ph=2 NNew=    0 IAdd=    4 IPass= 1 DotMx2= 2.78D-17
 OrtVCM:  IS=    1 I=    4 IndO=    4 Dot= 1.00D+00 DotN= 1.00D+00 ElMax1= 7.46D-01 ElMax1N= 7.46D-01
 OrtVCM:  Ph=2 NNew=    0 IAdd=    5 IPass= 1 DotMx2= 5.27D-16
 OrtVCM:  IS=    1 I=    5 IndO=    5 Dot= 1.00D+00 DotN= 1.00D+00 ElMax1= 6.86D-01 ElMax1N= 6.86D-01
 OrtVCM:  Ph=2 NNew=    0 IAdd=    6 IPass= 1 DotMx2= 2.08D-17
 OrtVCM:  IS=    1 I=    6 IndO=    6 Dot= 1.00D+00 DotN= 1.00D+00 ElMax1= 6.71D-01 ElMax1N= 6.71D-01
 OrtVCM:  Ph=1 IPass= 1 DotMx1= 6.71D-01
 OrtVCM:  Ph=1 IPass= 2 DotMx1= 2.32D-16
 OrtVCM:  IS=    1 I=    1 IndO=    7 Dot= 8.97D-01 DotN= 8.97D-01 ElMax1= 8.97D-01 ElMax1N= 8.97D-01
 OrtVCM:  Ph=2 NNew=    0 IAdd=    2 IPass= 1 DotMx2= 1.60D-02
 OrtVCM:  Ph=2 NNew=    0 IAdd=    2 IPass= 2 DotMx2= 2.85D-18
 OrtVCM:  IS=    1 I=    2 IndO=    8 Dot= 9.73D-01 DotN= 9.73D-01 ElMax1= 9.73D-01 ElMax1N= 9.73D-01
 OrtVCM:  Ph=2 NNew=    0 IAdd=    3 IPass= 1 DotMx2= 1.11D-25
 OrtVCM:  IS=    1 I=    3 IndO=    9 Dot= 7.59D-01 DotN= 7.59D-01 ElMax1= 7.59D-01 ElMax1N= 7.59D-01
 OrtVCM:  Ph=2 NNew=    0 IAdd=    4 IPass= 1 DotMx2= 2.82D-01
 OrtVCM:  Ph=2 NNew=    0 IAdd=    4 IPass= 2 DotMx2= 7.22D-17
 OrtVCM:  IS=    1 I=    4 IndO=   10 Dot= 1.88D-01 DotN= 1.88D-01 ElMax1= 3.30D-01 ElMax1N= 3.30D-01
 OrtVCM:  Ph=2 NNew=    0 IAdd=    5 IPass= 1 DotMx2= 2.89D-01
 OrtVCM:  Ph=2 NNew=    0 IAdd=    5 IPass= 2 DotMx2= 2.22D-17
 OrtVCM:  IS=    1 I=    5 IndO=   11 Dot= 5.50D-01 DotN= 5.50D-01 ElMax1= 5.50D-01 ElMax1N= 5.50D-01
 OrtVCM:  Ph=2 NNew=    0 IAdd=    6 IPass= 1 DotMx2= 1.22D-01
 OrtVCM:  Ph=2 NNew=    0 IAdd=    6 IPass= 2 DotMx2= 3.46D-18
 OrtVCM:  IS=    1 I=    6 IndO=    0 Dot= 5.12D-35 DotN= 5.12D-35 ElMax1= 5.53D-18 ElMax1N= 5.53D-18
 SchOr2:  IPass= 1 Test2A= 1.00D-01 IOff=     0 NDo=     6 NNew=     5
 OrtVCM:  Ph=1 IPass= 1 DotMx1= 7.60D-01
 OrtVCM:  Ph=1 IPass= 2 DotMx1= 1.11D-16
 OrtVCM:  IS=    1 I=    1 IndO=   12 Dot= 4.29D-02 DotN= 4.29D-02 ElMax1= 1.51D-01 ElMax1N= 1.51D-01
 SchOr2:  IPass= 1 Test2A= 1.00D-01 IOff=     6 NDo=     1 NNew=     1
 VibFq2-Diag2:  N=      6 IV=           3 MDV=   131069928 NE2=    21844987
 Dipole derivatives wrt mode   1: -4.52152D-17 -1.75299D-15  6.92180D+00
 Vibrational polarizability contributions from mode   1       0.0000000       0.0000000       5.4085521
 Vibrational hyperpolarizability contributions from mode   1       0.0000000       0.0000000       0.0000000
 Dipole derivatives wrt mode   2:  4.27120D-01 -8.75464D-01 -1.80155D-22
 Vibrational polarizability contributions from mode   2       0.0108290       0.0454954       0.0000000
 Vibrational hyperpolarizability contributions from mode   2       0.0000000       0.0000000       0.0000000
 Dipole derivatives wrt mode   3: -5.19255D-01 -1.14796D+01 -2.30542D-15
 Vibrational polarizability contributions from mode   3       0.0072523       3.5446035       0.0000000
 Vibrational hyperpolarizability contributions from mode   3       0.0000000       0.0000000       0.0000000
 Dipole derivatives wrt mode   4:  3.20220D+00  1.25061D+01 -1.88685D-21
 Vibrational polarizability contributions from mode   4       0.1611125       2.4573845       0.0000000
 Vibrational hyperpolarizability contributions from mode   4       0.0000000       0.0000000       0.0000000
 Dipole derivatives wrt mode   5: -2.11897D-01 -8.27799D+00 -6.00698D-22
 Vibrational polarizability contributions from mode   5       0.0003980       0.6074585       0.0000000
 Vibrational hyperpolarizability contributions from mode   5       0.0000000       0.0000000       0.0000000
 Dipole derivatives wrt mode   6:  2.15928D+00  2.70873D+00  7.73142D-22
 Vibrational polarizability contributions from mode   6       0.0084611       0.0133151       0.0000000
 Vibrational hyperpolarizability contributions from mode   6       0.0000000       0.0000000       0.0000000
 Diagonal vibrational polarizability:
        0.1880529       6.6682570       5.4085521
 NorSel:  MapVib=      1      2      3      4      5      6
 Harmonic frequencies (cm**-1), IR intensities (KM/Mole), Raman scattering
 activities (A**4/AMU), depolarization ratios for plane and unpolarized
 incident light, reduced masses (AMU), force constants (mDyne/A),
 and normal coordinates:
                           1         2         3         4         5
                          A"        A'        A'        A'        A'
       Frequencies ---   488.2530  673.3194 1000.2525 1308.7332 1742.3406
    Reduced masses ---     1.2954    6.3107    9.7075    1.3497    6.3959
   Force constants ---     0.1819    1.6857    5.7224    1.3621   11.4397
    IR Intensities ---    47.9113    0.9489  132.0509  166.6561   68.5700
 Coord Atom Element:
   1     1     1          0.00000  -0.69778  -0.54083   0.69259   0.54240
   2     1     1          0.00000  -0.27745  -0.09151   0.70434   0.51246
   3     1     1          0.98787   0.00000   0.00000   0.00000   0.00000
   1     2     7          0.00000  -0.12281   0.32530  -0.07154  -0.05351
   2     2     7          0.00000   0.22977   0.55134   0.06313   0.03302
   3     2     7         -0.03710   0.00000   0.00000   0.00000   0.00000
   1     3     6          0.00000   0.52427  -0.35137   0.00805   0.15466
   2     3     6          0.00000   0.00410  -0.34256   0.02604  -0.53670
   3     3     6         -0.13339   0.00000   0.00000   0.00000   0.00000
   1     4     8          0.00000  -0.24185   0.01290   0.01295  -0.10337
   2     4     8          0.00000  -0.18676  -0.21991  -0.11919   0.34146
   3     4     8          0.07030   0.00000   0.00000   0.00000   0.00000
                           6
                          A'
       Frequencies ---  3850.8840
    Reduced masses ---     1.0746
   Force constants ---     9.3890
    IR Intensities ---    11.9997
 Coord Atom Element:
   1     1     1         -0.64014
   2     1     1          0.76490
   3     1     1          0.00000
   1     2     7          0.04243
   2     2     7         -0.05760
   3     2     7          0.00000
   1     3     6          0.00430
   2     3     6          0.00066
   3     3     6          0.00000
   1     4     8         -0.00004
   2     4     8          0.00174
   3     4     8          0.00000
 Harmonic frequencies (cm**-1), IR intensities (KM/Mole), Raman scattering
 activities (A**4/AMU), depolarization ratios for plane and unpolarized
 incident light, reduced masses (AMU), force constants (mDyne/A),
 and normal coordinates:
                     1                      2                      3
                    A"                     A'                     A'
 Frequencies --   488.2530               673.3194              1000.2525
 Red. masses --     1.2954                 6.3107                 9.7075
 Frc consts  --     0.1819                 1.6857                 5.7224
 IR Inten    --    47.9113                 0.9489               132.0509
  Atom  AN      X      Y      Z        X      Y      Z        X      Y      Z
     1   1     0.00   0.00   0.99    -0.70  -0.28   0.00    -0.54  -0.09   0.00
     2   7     0.00   0.00  -0.04    -0.12   0.23   0.00     0.33   0.55   0.00
     3   6     0.00   0.00  -0.13     0.52   0.00   0.00    -0.35  -0.34   0.00
     4   8     0.00   0.00   0.07    -0.24  -0.19   0.00     0.01  -0.22   0.00
                     4                      5                      6
                    A'                     A'                     A'
 Frequencies --  1308.7332              1742.3406              3850.8840
 Red. masses --     1.3497                 6.3959                 1.0746
 Frc consts  --     1.3621                11.4397                 9.3890
 IR Inten    --   166.6561                68.5700                11.9997
  Atom  AN      X      Y      Z        X      Y      Z        X      Y      Z
     1   1     0.69   0.70   0.00     0.54   0.51   0.00    -0.64   0.76   0.00
     2   7    -0.07   0.06   0.00    -0.05   0.03   0.00     0.04  -0.06   0.00
     3   6     0.01   0.03   0.00     0.15  -0.54   0.00     0.00   0.00   0.00
     4   8     0.01  -0.12   0.00    -0.10   0.34   0.00     0.00   0.00   0.00

 -------------------
 - Thermochemistry -
 -------------------
 Temperature   298.150 Kelvin.  Pressure   1.00000 Atm.
 Atom     1 has atomic number  1 and mass   1.00783
 Atom     2 has atomic number  7 and mass  14.00307
 Atom     3 has atomic number  6 and mass  12.00000
 Atom     4 has atomic number  8 and mass  15.99491
 Molecular mass:    43.00581 amu.
 Principal axes and moments of inertia in atomic units:
                           1         2         3
     Eigenvalues --     9.21767 165.98842 175.20609
           X            0.11326   0.99357   0.00000
           Y            0.99357  -0.11326   0.00000
           Z            0.00000   0.00000   1.00000
 This molecule is an asymmetric top.
 Rotational symmetry number  1.
 Rotational temperatures (Kelvin)      9.39649     0.52181     0.49435
 Rotational constants (GHZ):         195.79141    10.87269    10.30068
 Zero-point vibrational energy      54213.5 (Joules/Mol)
                                   12.95733 (Kcal/Mol)
 Warning -- explicit consideration of   1 degrees of freedom as
           vibrations may cause significant error
 Vibrational temperatures:    702.49   968.76  1439.14  1882.97  2506.84
          (Kelvin)           5540.56
 
 Zero-point correction=                           0.020649 (Hartree/Particle)
 Thermal correction to Energy=                    0.023888
 Thermal correction to Enthalpy=                  0.024832
 Thermal correction to Gibbs Free Energy=        -0.003000
 Sum of electronic and zero-point Energies=           -165.435956
 Sum of electronic and thermal Energies=              -165.432717
 Sum of electronic and thermal Enthalpies=            -165.431773
 Sum of electronic and thermal Free Energies=         -165.459605
 
                     E (Thermal)             CV                S
                      KCal/Mol        Cal/Mol-Kelvin    Cal/Mol-Kelvin
 Total                   14.990              8.671             58.576
 Electronic               0.000              0.000              0.000
 Translational            0.889              2.981             37.203
 Rotational               0.889              2.981             20.222
 Vibrational             13.212              2.709              1.151
 Vibration     1          0.844              1.276              0.688
                       Q            Log10(Q)             Ln(Q)
 Total Bot       0.239747D+02          1.379753          3.176999
 Total V=0       0.754274D+11         10.877529         25.046436
 Vib (Bot)       0.369009D-09         -9.432964        -21.720201
 Vib (Bot)    1  0.340108D+00         -0.468384         -1.078493
 Vib (V=0)       0.116095D+01          0.064812          0.149236
 Vib (V=0)    1  0.110471D+01          0.043248          0.099582
 Electronic      0.100000D+01          0.000000          0.000000
 Translational   0.110853D+08          7.044746         16.221127
 Rotational      0.586098D+04          3.767971          8.676073
 
                                                                  T1
                                                             IR Spectrum
 
     3                                                                     1             1          1                                
     8                                                                     7             3          0         6     4                
     5                                                                     4             0          0         7     8                
     1                                                                     2             9          0         3     8                
 
     X                                                                     X             X          X         X     X                
                                                                           X             X          X               X                
                                                                           X             X          X               X                
                                                                           X             X          X               X                
                                                                           X             X          X               X                
                                                                           X             X          X               X                
                                                                           X             X          X                                
                                                                           X             X          X                                
                                                                                         X          X                                
                                                                                         X          X                                
                                                                                         X          X                                
                                                                                         X          X                                
                                                                                         X          X                                
                                                                                         X          X                                
                                                                                         X          X                                
                                                                                         X          X                                
                                                                                         X                                           
                                                                                         X                                           
                                                                                         X                                           
                                                                                         X                                           
 
 Forces in standard orientation:
 -------------------------------------------------------------------
 Center     Atomic                   Forces (Hartrees/Bohr)
 Number     Number              X              Y              Z
 -------------------------------------------------------------------
      1        1           0.006335052    0.003630654    0.000000000
      2        7          -0.084442418   -0.054072427    0.000000000
      3        6           0.142276950   -0.025796601    0.000000000
      4        8          -0.064169585    0.076238374    0.000000000
 -------------------------------------------------------------------
 ***** Axes restored to original set *****
 Rotating derivatives, DoTrsp=F IDiff=-2 LEDeriv=    629 LFDPrp=       0 LDFDPr=       0.
 -------------------------------------------------------------------
 Center     Atomic                   Forces (Hartrees/Bohr)
 Number     Number              X              Y              Z
 -------------------------------------------------------------------
      1        1          -0.007127950    0.000000000    0.001583309
      2        7           0.098835624    0.000000001   -0.016907653
      3        6          -0.087789094   -0.000000004    0.114896781
      4        8          -0.003918580    0.000000003   -0.099572436
 -------------------------------------------------------------------
 Cartesian Forces:  Max     0.114896781 RMS     0.058413672
 From PutF, contents of force:
   1   -0.1583309071D-02
   2   -0.8270742742D-01
   3   -0.9090429250D-01
   4    0.1414953195D-01
   5    0.9523750960D-01
   6    0.2487491040D-08
 -----------------------------------------------------------------------------------------------
                       Internal Coordinate Forces (Hartree/Bohr or radian)
  Cent   Atom   N1       Length/X         N2         Alpha/Y        N3         Beta/Z          J
 -----------------------------------------------------------------------------------------------
      1  H 
      2  N        1  -0.001583(     1)
      3  C        2  -0.082707(     2)      1   0.014150(     4)
      4  O        3  -0.090904(     3)      2   0.095238(     5)      1   0.000000(     6)     0
 -----------------------------------------------------------------------------------------------
 Internal  Forces:  Max     0.095237510 RMS     0.063740370
 Force constants in Cartesian coordinates: 
                1             2             3             4             5 
      1  0.606638D-01
      2  0.000000D+00  0.584066D-02
      3  0.241525D-01  0.000000D+00  0.527247D+00
      4 -0.307046D-01  0.000000D+00 -0.430046D-01  0.288608D+00
      5  0.000000D+00 -0.688264D-02  0.000000D+00  0.000000D+00  0.555536D-01
      6  0.403738D-01  0.000000D+00 -0.514082D+00  0.137612D+00  0.000000D+00
      7 -0.220519D-01  0.000000D+00  0.183988D-01 -0.167127D+00  0.000000D+00
      8  0.000000D+00 -0.335964D-02  0.000000D+00  0.000000D+00 -0.684640D-01
      9 -0.640227D-01  0.000000D+00 -0.200813D-01  0.165086D-01  0.000000D+00
     10 -0.790723D-02  0.000000D+00  0.453383D-03 -0.907757D-01  0.000000D+00
     11  0.000000D+00  0.440163D-02  0.000000D+00  0.000000D+00  0.197930D-01
     12 -0.503497D-03  0.000000D+00  0.691645D-02 -0.111116D+00  0.000000D+00
                6             7             8             9            10 
      6  0.697834D+00
      7 -0.844314D-01  0.364322D+00
      8  0.000000D+00  0.000000D+00  0.156933D+00
      9 -0.123100D+00  0.278886D+00  0.000000D+00  0.703994D+00
     10 -0.935544D-01 -0.175142D+00  0.000000D+00 -0.231372D+00  0.273825D+00
     11  0.000000D+00  0.000000D+00 -0.851089D-01  0.000000D+00  0.000000D+00
     12 -0.606517D-01 -0.212854D+00  0.000000D+00 -0.560812D+00  0.324473D+00
               11            12 
     11  0.609142D-01
     12  0.000000D+00  0.614548D+00
 FCInt: Cartesian first derivatives: 
                 1             2             3             4 
      1  -0.712795D-02  0.988356D-01 -0.877891D-01 -0.391858D-02
      2   0.000000D+00  0.000000D+00  0.000000D+00  0.000000D+00
      3   0.158331D-02 -0.169077D-01  0.114897D+00 -0.995724D-01
 FCInt: Cartesian force constants: 
                1             2             3             4             5 
      1  0.606638D-01
      2  0.000000D+00  0.584066D-02
      3  0.241525D-01  0.000000D+00  0.527247D+00
      4 -0.307046D-01  0.000000D+00 -0.430046D-01  0.288608D+00
      5  0.000000D+00 -0.688264D-02  0.000000D+00  0.000000D+00  0.555536D-01
      6  0.403738D-01  0.000000D+00 -0.514082D+00  0.137612D+00  0.000000D+00
      7 -0.220519D-01  0.000000D+00  0.183988D-01 -0.167127D+00  0.000000D+00
      8  0.000000D+00 -0.335964D-02  0.000000D+00  0.000000D+00 -0.684640D-01
      9 -0.640227D-01  0.000000D+00 -0.200813D-01  0.165086D-01  0.000000D+00
     10 -0.790723D-02  0.000000D+00  0.453383D-03 -0.907757D-01  0.000000D+00
     11  0.000000D+00  0.440163D-02  0.000000D+00  0.000000D+00  0.197930D-01
     12 -0.503497D-03  0.000000D+00  0.691645D-02 -0.111116D+00  0.000000D+00
                6             7             8             9            10 
      6  0.697834D+00
      7 -0.844314D-01  0.364322D+00
      8  0.000000D+00  0.000000D+00  0.156933D+00
      9 -0.123100D+00  0.278886D+00  0.000000D+00  0.703994D+00
     10 -0.935544D-01 -0.175142D+00  0.000000D+00 -0.231372D+00  0.273825D+00
     11  0.000000D+00  0.000000D+00 -0.851089D-01  0.000000D+00  0.000000D+00
     12 -0.606517D-01 -0.212854D+00  0.000000D+00 -0.560812D+00  0.324473D+00
               11            12 
     11  0.609142D-01
     12  0.000000D+00  0.614548D+00
 Internal force constants: 
                1             2             3             4             5 
      1  0.527247D+00
      2 -0.139572D-01  0.371638D+00
      3 -0.639501D-02  0.164301D+00  0.805717D+00
      4  0.408165D-01  0.955989D-01  0.788320D-02  0.235904D+00
      5  0.623682D-02  0.128106D+00  0.991883D-01  0.317521D-01  0.237807D+00
      6  0.000000D+00  0.000000D+00  0.000000D+00  0.000000D+00  0.000000D+00
                6 
      6  0.139372D-01
 Frcnst in PutFF: 
                1             2             3             4             5 
      1  0.527247D+00
      2 -0.139572D-01  0.371638D+00
      3 -0.639501D-02  0.164301D+00  0.805717D+00
      4  0.408165D-01  0.955989D-01  0.788320D-02  0.235904D+00
      5  0.623682D-02  0.128106D+00  0.991883D-01  0.317521D-01  0.237807D+00
      6  0.000000D+00  0.000000D+00  0.000000D+00  0.000000D+00  0.000000D+00
                6 
      6  0.139372D-01
 Force constants in internal coordinates: 
                1             2             3             4             5 
      1  0.527247D+00
      2 -0.139572D-01  0.371638D+00
      3 -0.639501D-02  0.164301D+00  0.805717D+00
      4  0.408165D-01  0.955989D-01  0.788320D-02  0.235904D+00
      5  0.623682D-02  0.128106D+00  0.991883D-01  0.317521D-01  0.237807D+00
      6  0.000000D+00  0.000000D+00  0.000000D+00  0.000000D+00  0.000000D+00
                6 
      6  0.139372D-01
 Final forces over variables, Energy=-1.65456605D+02:
 -1.58330907D-03-8.27074274D-02-9.09042925D-02 1.41495320D-02
  9.52375096D-02 2.48749104D-09
 Leave Link  716 at Sun Mar 22 16:36:41 2020, MaxMem=  131072000 cpu:       0.0
 (Enter C:\G09W\l103.exe)

 GradGradGradGradGradGradGradGradGradGradGradGradGradGradGradGradGradGrad
 Berny optimization.
 Search for a local minimum.
 Step number   1 out of a maximum of    2
 All quantities printed in internal units (Hartrees-Bohrs-Radians)
 Second derivative matrix not updated -- analytic derivatives used.
 The second derivative matrix:
                          B1        B2        B3        A1        A2
           B1           0.52725
           B2          -0.01396   0.37164
           B3          -0.00640   0.16430   0.80572
           A1           0.04082   0.09560   0.00788   0.23590
           A2           0.00624   0.12811   0.09919   0.03175   0.23781
           D1           0.00000   0.00000   0.00000   0.00000   0.00000
                          D1
           D1           0.01394
 ITU=  0
     Eigenvalues ---    0.01394   0.14741   0.19739   0.40728   0.53336
     Eigenvalues ---    0.89288
 Quadratic step=8.260D-01 exceeds max=3.000D-01 adjusted using Lamda=-2.800D-01.
 Angle between NR and scaled steps=   8.84 degrees.
 Angle between quadratic step and forces=  20.91 degrees.
 Linear search not attempted -- first point.
 Variable       Old X    -DE/DX   Delta X   Delta X   Delta X     New X
                                 (Linear)    (Quad)   (Total)
    B1        1.98508  -0.00158   0.00000  -0.00944  -0.00944   1.97564
    B2        2.57498  -0.08271   0.00000  -0.15955  -0.15955   2.41542
    B3        2.33300  -0.09090   0.00000  -0.08156  -0.08156   2.25144
    A1        1.87972   0.01415   0.00000   0.04444   0.04444   1.92415
    A2        2.34113   0.09524   0.00000   0.23641   0.23641   2.57753
    D1        3.14159   0.00000   0.00000   0.00000   0.00000   3.14159
         Item               Value     Threshold  Converged?
 Maximum Force            0.095238     0.000450     NO 
 RMS     Force            0.063740     0.000300     NO 
 Maximum Displacement     0.236408     0.001800     NO 
 RMS     Displacement     0.122516     0.001200     NO 
 Predicted change in Energy=-3.449324D-02
 GradGradGradGradGradGradGradGradGradGradGradGradGradGradGradGradGradGrad

 Leave Link  103 at Sun Mar 22 16:36:41 2020, MaxMem=  131072000 cpu:       0.0
 (Enter C:\G09W\l9999.exe)

 Test job not archived.
 1|1|UNPC-WIN-3U8THI5R4SL|Freq|RHF|STO-3G|C1H1N1O1|ADMINISTRATOR|22-Mar
 -2020|1||#p sto-3g scf=maxcycle=200 hf freq=noraman IOP(7/33=1)||T1||0
 ,1|H|N,1,B1|C,2,B2,1,A1|O,3,B3,2,A2,1,D1,0||B1=1.05045728|B2=1.3626201
 1|B3=1.2345679|A1=107.69977577|A2=134.13664283|D1=180.0000027||Version
 =IA32W-G09RevC.01|State=1-A'|HF=-165.4566049|RMSD=5.934e-009|RMSF=5.84
 1e-002|ZeroPoint=0.0206488|Thermal=0.0238875|Dipole=0.3943339,0.,-0.73
 01412|DipoleDeriv=0.3003988,0.,0.1926665,0.,0.297331,0.,0.0871768,0.,-
 0.0060516,-0.6820115,0.,-0.6997829,0.,-0.522107,0.,-0.1198537,0.,-0.14
 67229,0.801245,0.,0.7289863,0.,0.3759885,0.,0.537359,0.,0.5661645,-0.4
 196322,0.,-0.2218699,0.,-0.1512125,0.,-0.5046821,0.,-0.41339|Polar=15.
 3185242,-0.0000002,3.3756784,8.0959543,-0.0000003,15.6319865|HyperPola
 r=36.3368282,-0.0000002,14.4149313,-0.0000004,6.5920608,0.0000006,6.53
 05477,-7.3440168,0.0000011,-26.1773473|PG=CS [SG(C1H1N1O1)]|NImag=0||0
 .06066375,0.,0.00584066,0.02415247,-0.00000002,0.52724660,-0.03070461,
 0.,-0.04300461,0.28860760,0.,-0.00688264,0.00000001,0.,0.05555365,0.04
 037375,0.00000002,-0.51408171,0.13761197,-0.00000002,0.69783388,-0.022
 05192,0.,0.01839876,-0.16712731,0.,-0.08443136,0.36432151,0.,-0.003359
 64,0.,0.,-0.06846404,0.,0.,0.15693257,-0.06402272,0.,-0.02008133,0.016
 50857,0.,-0.12310047,0.27888613,-0.00000001,0.70399406,-0.00790723,0.,
 0.00045338,-0.09077568,0.,-0.09355436,-0.17514229,0.,-0.23137198,0.273
 82520,0.,0.00440163,0.,0.,0.01979303,0.,0.,-0.08510889,0.00000001,0.,0
 .06091424,-0.00050350,0.,0.00691645,-0.11111592,0.,-0.06065170,-0.2128
 5353,0.00000001,-0.56081225,0.32447296,-0.00000001,0.61454750||0.00712
 795,0.,-0.00158331,-0.09883562,0.,0.01690765,0.08778909,0.,-0.11489678
 ,0.00391858,0.,0.09957244|||@


 In the beginning there was nothing, which exploded.
 Job cpu time:  0 days  0 hours  0 minutes  4.0 seconds.
 File lengths (MBytes):  RWF=      5 Int=      0 D2E=      0 Chk=      1 Scr=      1
 Normal termination of Gaussian 09 at Sun Mar 22 16:36:41 2020.
